# vtk DataFile Version 3.0
d-2__ created by libgimli-v1.4.0-22-g2d6c0250
ASCII
DATASET UNSTRUCTURED_GRID
POINTS 739 double
35.25	0	0
34.766081542978	-0.82021566092004	0
35.632578047987	-0.72883630452407	0
24.024974223709	-3.3959938323052	0
23.653360812241	-2.7288670633191	0
23.229010511392	-3.3529576731171	0
4.0418655321018	-4.0506862785614	0
3.4460515782386	-4.7439961566826	0
4.2311515920029	-5.0809003825016	0
15.407766344465	-7.3730645449994	0
16.233299169082	-7.2585920105004	0
15.614499752591	-6.6705036155538	0
0.87966150056611	-3.868344094725	0
0.53946997502051	-4.5402672655454	0
1.0423668045247	-4.5416868935558	0
10.044780655634	-1.38528895599	0
9.2449702923403	-0.85837555044783	0
9.345362148561	-1.7444613449413	0
9.4404614270197	-2.4142126442597	0
8.8670364751027	-2.2005241160204	0
8.8981197610435	-2.9065452242835	0
40.643431096227	-1.8007378109998	0
40.90951054121	-2.5500139899776	0
41.411624169268	-1.5999858451814	0
30.395367991702	-1.9693062955434	0
29.554682165597	-1.8859186953224	0
29.759185494429	-2.7694853144209	0
5.1523452594718	-5.0731882456395	0
4.7333838933121	-4.4274311535604	0
4.8293365853565	-6.5416884368369	0
4.6531391287001	-7.357849878802	0
5.3618836946219	-7.2453518540761	0
2.420340802333	-5.9803755969777	0
2.2095578170366	-5.1629239562001	0
1.5749245865607	-5.8280971878667	0
6.4631285840114	-5.7234774575293	0
7.0614370368234	-5.3339000067243	0
6.4310774709665	-5.0305550495624	0
6	-8	0
6.8149088859959	-7.1369339193422	0
6.0380890087879	-7.0593430649453	0
2.337095399571	-2.7024130282098	0
2.4182611852565	-1.7461085668484	0
1.7314028473745	-2.3660256592611	0
4.7120578677277	-5.728342736769	0
4.0027109767498	-6.0857371454819	0
5.6471126438986	-6.5176179037	0
5.8650720782736	-5.3997839601918	0
5.3575291744975	-5.8713437985688	0
8.8206498418204	-7.3549687861435	0
8.4413342175328	-6.6552453659709	0
8.1531633313928	-7.3876617519353	0
5.9380884743294	-5.9807090902451	0
6.340105930545	-6.4315959866684	0
4.0658421990741	-7.0053381340916	0
5.3593802187152	-4.2767652155575	0
5.858312820725	-4.714231643898	0
3.5539747292485	-5.4650356113086	0
3.1722088864894	-6.0889775775066	0
4	-8	0
5	-8	0
4.9041715027695	-3.6404381370114	0
6.3841275467394	-4.4206981320864	0
6.7082817957996	-3.6916407749453	0
5.9717371155479	-4.0622525356292	0
10.455786908479	-7.3899923003538	0
10.069732056581	-6.7108805202894	0
9.5950164365213	-7.3631486063629	0
2.7298127856572	-4.5788385214117	0
2.0726289944547	-4.3946730213117	0
7.1327228036634	-6.1871299893166	0
5.9922272054042	-3.4924814834306	0
4.2186757807963	-3.1085730056651	0
5.5515996961085	-3.721657217286	0
5.5244600938001	-3.1299237043516	0
2.921729566446	-5.3311984568052	0
6.9648131056334	-4.5768127754969	0
7.6649814503624	-4.8682074785256	0
7.7420202437717	-5.6148710814956	0
5.5676567450914	-2.3292148446412	0
4.9222559921608	-2.7486617302843	0
6.1971181697204	-2.8540900672423	0
7.0212731257583	-2.6573891139302	0
4.0890680178231	-0.80500860446348	0
3.2172049700142	-0.97874737870402	0
3.8193790308275	-1.6629755476804	0
8.3416777787407	-5.1833881033199	0
7.5572275114128	-4.102709076165	0
3.5794694184609	-3.3774522548669	0
7.6088637440976	-3.3061553813084	0
8.0396305197243	-2.3832345250595	0
7.2501992898856	-1.8315241352993	0
7.8258608922489	-1.346118462439	0
7.0328259049448	-0.91494393004697	0
6.369261658854	-1.8257400853179	0
4.9672453990647	-2.0402364640941	0
5.4220884530876	-1.389640384905	0
4.5794425818972	-1.4753994016058	0
0	-6	0
0.75115345976489	-6.2921750472139	0
0.77632627405085	-5.2976449958587	0
2.3034188316378	-3.3286511292171	0
1.9431807852442	-3.7381185229599	0
2.5260903249391	-3.8678537932067	0
7.8699182234219	-6.2360358230764	0
7.6542578277896	-6.8451202459774	0
8.2655479110563	-3.2088163092203	0
3.2040934351226	-3.9685105959404	0
0.734375	0	0
0	-1	0
0.61443623639171	-1.1818049446663	0
0	-2	0
0.52853507360799	-2.6508136276114	0
1.0036880328999	-1.9729809919743	0
1.8146822935359	-3.1226852479236	0
1.4514208372378	-3.5701769998337	0
1.5278007240401	-4.8942112229174	0
0	-4	0
3.5512838533278	-2.5599597745499	0
1.4868063674291	-4.1631811125537	0
2.9034746231188	-3.1852042312138	0
2.8721321228156	-2.4183325865144	0
4.3412571586717	-2.2647172445937	0
2	-8	0
2.6659100987264	-6.9662786892768	0
1.8544139966028	-7.1043716111303	0
0.5079131956491	-3.2995937075409	0
1.1307352897668	-2.9800868127229	0
3.4693050880931	-6.6981202008635	0
1.6868535240114	-1.6376438628027	0
3.440232320933	-7.3347847410184	0
3	-8	0
1	-8	0
0.61268418967956	-7.4660603407378	0
0	-8	0
0	-3	0
4.8535502314262	-0.7073385918545	0
3.1733778454903	-1.8751252197409	0
2.9375	0	0
3.671875	0	0
4.40625	0	0
2.4330107061784	-0.73760748326961	0
1.3333015130559	-0.9315959698365	0
1.8766050689234	-0.56293537948883	0
1.948537503014	-1.1293433308992	0
0	0	0
2.203125	0	0
1.46875	0	0
6.1316050836961	-0.78450548287625	0
5.484535700698	-0.57615159438342	0
7.7277917280599	-0.60111054434286	0
8.400860817486	-5.8876225358776	0
9.5630097790906	-2.94368847844	0
5.875	0	0
6.609375	0	0
8.3805420158992	-0.72883907306127	0
8.078125	0	0
5.140625	0	0
7.34375	0	0
1.9753969304143	-6.5108597214121	0
0	-7	0
1.3689252361078	-6.6773065404534	0
1.271866542911	-7.3681658699021	0
0.79843667000352	-6.9610346280904	0
0	-5	0
8.0934491987285	-3.7402798363746	0
8.3526223075714	-4.3862968716516	0
8.8812932222946	-4.8495908353712	0
9.2495369766643	-4.2685648122416	0
7.5241925852712	-7.4735725008744	0
7	-8	0
9.0708714075818	-5.4858233310482	0
10.678386559089	-3.3272598792468	0
10.804571464251	-4.3307964217889	0
11.41891875058	-3.7351133902904	0
8	-8	0
10	-8	0
9	-8	0
9.2512683726635	-6.7158200190867	0
8.5	-8	0
9.6398646977454	-6.0569476299073	0
12	-8	0
11.701190691715	-7.0178795707848	0
11.202571672499	-7.4461441005432	0
8.9599697063497	-6.1597869948541	0
11.233165938823	-5.1597635949138	0
10.502612452147	-5.0816627650991	0
10.624270039711	-5.9297050009808	0
10.875476750227	-6.8176234265893	0
11.297502262295	-6.4093708180867	0
9.4009670005084	-3.4945762481523	0
8.704031409935	-3.6771790743333	0
9.8711091463184	-5.3516531775058	0
9.4076131337331	-4.9197440922233	0
8.6148589807278	-1.5468768747086	0
9.9767463500217	-4.640261707511	0
10.015519359214	-3.8912900484212	0
9.9562334753365	-3.2602198917368	0
11.542293243434	-5.8727156156799	0
11.533831101922	-2.9603017492445	0
12.154184826355	-5.3073953175186	0
12.205039694262	-6.0302968717877	0
12.565653848073	-5.7317611342705	0
12.283650708161	-3.5816924475913	0
10.110157211253	-2.637865210986	0
9.8587877567004	-2.0420494257341	0
10.28125	0	0
9.546875	0	0
9.9649662999966	-0.60627195995189	0
12.70465236974	-4.5100365304716	0
11.770287658143	-4.440650932946	0
11.617832441555	-2.0064323806666	0
10.859498247607	-2.4328581497823	0
8.8125	0	0
10.705622488639	-0.78896034843682	0
15.06553672398	-6.276028353677	0
15.680974072729	-5.7849759373399	0
14.632715739621	-5.6685994613595	0
12.365976924043	-6.6743633558583	0
11.813005918224	-6.4031309146134	0
14.38647420984	-4.8199859379677	0
14.194804380357	-4.0595150993604	0
13.597094220068	-4.6359830373028	0
12.293397764589	-2.6540853557846	0
13.34178425423	-3.6968226496998	0
10.821707318997	-1.6462338807521	0
10.342661210516	-2.0275986905901	0
14.010238366691	-2.1919402828937	0
13.55729974309	-2.7484698825173	0
14.240137580401	-2.6619477668096	0
12.917051988236	-2.4369691973858	0
12.879625457607	-3.0259697333822	0
15.191535490918	-4.924313627692	0
12.484375	0	0
12.086565658987	-0.57709382902849	0
12.758125436677	-1.01796672845	0
11.96236122703	-1.2284582090393	0
11.015625	0	0
11.318264939988	-1.2611066042886	0
11.475466841094	-0.64060339861446	0
12.852009680744	-6.1773420833061	0
13.072225890854	-5.405038899661	0
11.75	0	0
13.886294673494	-5.3329592763524	0
13.758879284747	-6.1456668635604	0
13.226726949397	-7.0485511502546	0
12.486647683567	-1.8707614222818	0
16.082690019272	-4.8838028544159	0
15.588249595521	-4.0858229696258	0
13.21875	0	0
13.352540526941	-0.46325628238061	0
12.45258115371	-7.3503371603357	0
13	-8	0
14.832628878105	-4.3011594131318	0
14.166838931635	-3.2806882428375	0
14.837679056872	-2.8631337404129	0
14.652463129072	-2.1856472856178	0
13.572273204992	-1.0938488821995	0
14.257450469287	-1.4834733391051	0
14.136499103215	-0.64728730968009	0
11	-8	0
14.906932583358	-6.8595391989725	0
14.50530276564	-6.3880454815302	0
14.180657895825	-6.9822987629868	0
14	-8	0
13.361788428331	-1.8441238959815	0
13.953125	0	0
14.860489128315	-3.6273128087287	0
15.023516208248	-0.78525331169581	0
14.6875	0	0
16.433738536114	-4.1591436718784	0
16.8292022244	-4.7493086727781	0
16.492671238228	-2.7570829143144	0
15.55378227869	-2.2395328783323	0
15.583809923027	-3.1816603901125	0
16.41147786877	-1.8589837305121	0
17.312602990133	-1.9876176433335	0
15.06680452402	-1.5886399739304	0
15.85107129564	-1.2339717480057	0
16.195600797192	-3.5412022318805	0
17.114058842164	-4.1917737383704	0
16.896094149161	-3.5575267671562	0
16.811448977771	-5.5938104794507	0
17.491952228104	-2.9614820164517	0
16.15625	0	0
15.750627365419	-0.51721425022099	0
16.30045814652	-0.5635762108592	0
15.421875	0	0
15	-8	0
16	-8	0
22.756862915706	-1.8570017610221	0
22.344534171134	-2.5456024048519	0
22.969878419642	-2.6472927337462	0
20.044005905968	-2.534398285706	0
19.517693861884	-1.7376224821256	0
19.295726866527	-2.3913520544351	0
16.40676546016	-6.4555129050585	0
17.018238820229	-7.033983679535	0
17.634670927242	-3.7791145708047	0
18.858048753151	-0.56694169011229	0
19.09375	0	0
18.359375	0	0
16.853086776378	-1.0597567726391	0
18.167541581048	-2.4176717555584	0
17.627135722909	-1.2162305966125	0
16.890625	0	0
18.803920155665	-2.6260600115479	0
18.805716510343	-2.0028710992174	0
17.596801646645	-0.52497032841282	0
18.243386992724	-0.86293430039319	0
18.167765680984	-1.6205595504649	0
18.884682322029	-1.2506979597346	0
19.738008291269	-0.72929214829284	0
17.625	0	0
17.30462052823	-4.6267683525864	0
20.055946740925	-4.2871034324514	0
19.251021539757	-4.0538766602334	0
19.724539057624	-4.9713633198339	0
14.698061916436	-7.4441215935864	0
17.612789726548	-7.4211394446211	0
16.96875	-8	0
17.9375	-8	0
[...]
CELL_DATA 1349
SCALARS Coverage double 1
LOOKUP_TABLE default
1.429238806378 0.56805377343769 -0.18047419968957 0.21154479804824 -0.30749498965567 1.0076933017657 0.6951197872224 0.70676281273212 0.8427063582455 -0.20065778067084 0.037162891688598 -0.13469003662245 -1.2315064841732 -0.19986746878948 -0.37016009896324 0.5547001262261 -0.16469522372521 -0.13595895499084 -0.28824440302608 -0.078909261222901 -0.21298390266081 -0.49997720546799 -0.056689357803234 -0.10262402219342 -0.22906724181664 -0.29605941857489 -0.50836777291145 -0.031584673134599 -0.13303630021178 0.02563449598117 -0.21506953720285 0.13052545966422 -0.11525610363729 0.012793858986153 -0.38504349509442 -0.0017247328751625 -0.21160570973109 -0.32447222392602 0.30254085554553 -0.025530116274763 -0.012701318636328 0.29931950194384 0.14672316925046 -0.80546227131651 -0.24816466150355 -0.50679846982487 0.05136884733317 0.010280736657783 0.38798920476023 -0.067900352815433 0.2619397225621 0.20047523649337 -0.19755128434406 0.22014978910945 0.3758246804343 -0.55838902028317 -0.17672124573334 0.084054858906302 -0.37180590083945 -0.021352001754768 -0.15742201417971 0.21578609743603 0.10827331116181 0.40060267716479 0.33288808806705 0.39451260308606 -0.40059480942649 -0.49409494956473 0.52846919898381 0.40368137375041 0.87395707766218 0.38142390084493 -0.33829171559371 -0.55676746822592 -0.057450277919602 0.34613750890621 0.33782381186045 -0.52552672316705 0.59141844152415 0.92849057210432 0.47144333394453 0.44319533014889 0.52660270245213 0.43841398812035 0.50579868853883 0.80463983275573 -0.8118326048349 -0.2529959700619 -0.87332610238421 0.63328955041614 0.10482108104278 -0.32918288806463 0.77424463211512 0.95979690230925 0.36541466554225 -0.32039157316895 -0.36141618775941 -0.88463458580051 -0.23552983857946 0.42353116497448 -0.58963879744919 -0.93144745823918 0.45910962591861 0.79358755930307 0.48777809111351 0.53121025857207 0.76399821567756 0.39493897787944 0.15063810962542 -1.4853815796288 0.072364563237253 -0.056480592043444 -0.14056233198803 0.0044634994424865 -0.54012856213337 0.43958314479142 -0.63429075464308 0.47303915383683 -0.26202434431445 -1.2559571169008 0.1148559898445 -0.73489711941842 -0.54543597414043 0.580481579601 0.075393685308802 0.1058729238703 -0.61497010877459 0.669730540938 -0.020652291706658 -0.35935871460786 -0.92320468542357 -0.25627423294087 -0.31740702929205 -0.38880474590932 -0.62752736731033 -0.55985021569139 0.44226126554714 0.49015737425111 0.66901265922911 0.042297147911768 -0.81154595936214 0.10853659909271 -0.39694082601734 0.78266268943537 0.64336405959416 0.56910299503574 0.43413256281478 0.26146573140689 0.6133847022487 0.96492158536977 0.47510180758617 1.4353685169016 1.3196492417964 0.89456516368348 0.70000155646891 0.80341798545319 1.0222074301841 0.78965541994717 0.9086939979705 1.0858578076531 0.67695168977284 0.98651894550476 1.1118852717463 0.83756834499399 1.4746176773299 0.98898900877589 1.1702586232942 1.1471094953882 1.0865762482982 0.91161266309312 1.0145964984858 0.60083959038681 1.1766876516326 -0.41311146594394 0.68683636789281 1.5136835155842 1.3527503251169 1.3469516854636 0.10301101710013 0.12031091997025 0.24412225983172 0.34059978444919 0.80775750438188 0.98836566824696 0.88281177657598 1.3629323786126 1.0614055638012 0.85613902231194 1.7349742764839 1.55388889315 0.86069048565997 1.285770491703 1.3317737933337 1.4187831385001 -0.53882321723828 -0.33728508623348 -0.90504193915051 -1.3934997088808 -0.63430317872963 -0.34057944088053 -0.26685053671746 -1.4507974960612 -0.82431463181371 -0.91588066377969 -1.5831366957988 -0.88028918282909 -0.61260918910649 -1.2420696254981 -0.51297881600394 -1.042071992792 -0.30876384777943 -0.25909455794481 0.74957240647801 -1.0953410837381 0.15807952761787 0.66129711410375 -0.58723300570769 0.47989131046505 0.45109578308958 0.70951720890338 0.52647365418334 0.61353170379605 -0.80301692094576 0.68521138243087 0.59762086552255 0.68715918141766 0.38941424619815 0.29298521107448 0.092451189765235 0.43186392657285 -0.33246105880619 0.18656543821217 -0.69064723479285 -0.52592170294878 -0.88984140367561 -0.5747512874209 -0.69768505098807 -0.71550525294841 -0.92867356141474 -0.027864027811749 0.6183594610118 -0.48280586092165 -0.84440901588246 -0.53455465159178 -0.35511152342598 1.1824616914183 0.36417822703716 0.26487838196563 0.68787943776857 -0.0077311681748185 0.88144421788563 -0.080207339844732 -0.48526575717209 -0.18769250585001 -0.58407053821444 0.39754075490288 -0.73685780506877 0.082815811231759 -0.62975635174347 0.82547515443132 -0.52578462490256 -0.42940440048964 0.73844087246176 -0.4869044326912 -0.11541602519043 0.63536385860983 0.72049745774171 0.63352913718974 0.75401600389017 0.38893539052388 0.70821931872768 0.67034488271112 0.74757248315215 0.21094965251509 0.61998664404371 -0.34278575447473 0.3565515686127 -0.72010808307143 -0.56992168020693 0.083772079589666 0.6995434869641 -0.80372661407647 -0.74135744608499 0.58577955443665 0.72875527220401 0.31242867761271 1.2585526284296 0.68477984599331 0.75048495302344 0.26896824625594 0.66568533038307 0.089768095497048 0.53523986270769 -0.032725890745669 -0.055079353752888 -0.17644982843054 0.026858444356551 -0.16848333677339 0.48496019451671 0.18721304175455 0.59523790048361 0.5899004412479 0.76526278651138 0.69339697288265 0.71950233920167 1.5184806956164 1.7181244441673 0.75830755500913 0.73502981265952 1.1153071724387 1.4973500076642 1.0535512478517 1.0183011219335 0.86060970164558 1.7806963944712 1.5279490753059 0.90908195850648 1.1666126405872 0.58800452431667 1.4345455741815 -0.68467547924165 -1.3007635985685 -0.58415634295737 0.39241804897898 0.26875938860908 0.01851118571802 -0.66481762170753 -0.30088326529627 -0.43919128270025 -0.55132984786282 -0.26608676394399 0.074339734748511 -0.14855359752552 0.67139143025684 0.58674205465427 0.55212640399566 0.82912088777463 0.57695190379016 0.59536623561725 0.57104745172478 0.83238169132669 0.78579787541447 0.88137293915082 0.77222022559518 0.69629977255309 0.72287324757485 0.50897792555439 0.68921551730514 0.82920796942262 1.60356285088 0.79776517231824 1.3426928110319 1.8004959981035 0.7373529631234 1.1614360062782 1.0195950575001 0.73709693919733 0.86251455333996 0.79405535427955 0.69431888488572 0.87300608318582 0.65747425436446 1.0404333518351 1.2565110295876 1.6017945649142 1.3272444649707 1.3145768333176 0.10576092457075 1.4362192118085 0.37642680112054 0.20373975945657 0.83114246218284 0.32377352263505 1.5416129551357 0.01163511321723 0.70465815142306 0.69645539225843 0.73089759800533 0.39048868663433 0.69741294489689 0.047797451406057 1.0730705557785 0.5608378455939 0.32350996056757 1.4786739699761 0.28908843392931 0.23520592978127 0.99760210889503 0.71789689489979 0.358086011558 0.58348186677237 0.65999332096558 1.0914661229844 -0.28612292242056 -0.69226818986723 0.2459233911985 0.13759383229264 0.062647053690095 0.30853406775371 -0.015225665443925 0.024221029085223 -0.17187148629658 -0.12974660261775 0.16698924595377 0.0096103789986278 0.018233321899087 0.12066134273279 0.35258471415271 0.28198804840827 0.0098756250259107 1.7503076352634 1.1221254350284 0.83301938780473 1.1975922823502 1.4128472854241 1.3768947008803 1.0384837122779 1.1295360547628 1.6416885071986 0.87650593210453 0.83700500917196 0.65776053561025 0.84165855246963 0.62904683370682 0.58863152056308 0.6216717445974 1.9749225072892 0.59836349515235 1.6349597529526 0.66360617078487 0.66571766074269 0.63881065620089 0.7513842412189 0.16239782921606 0.47085010986888 0.50569953879852 0.74958740419248 0.7994622662339 0.68664932586063 -0.17277290157982 0.016235533704191 -0.16011835272448 0.62481070557183 1.2203036669152 0.95596645704715 0.63687402523993 0.67336741525562 0.5908471098202 1.1048906556391 0.97226596518317 0.76069789046126 1.0086852094338 1.1478294092137 0.57315711405214 0.49713385678339 0.64915559951388 0.72568873067483 0.68593267088222 0.71393986221138 0.34171059737061 0.54634333701761 0.33396032186389 0.69646508574365 0.35166634416104 1.6471564148797 0.75517642167684 0.83041857119619 0.88020618012723 1.0170151394542 1.5276469756489 1.0072797601597 1.7400639823863 1.6513357941662 0.44703695821152 1.0958693929027 1.4116923831517 -0.10271829673356 1.197578130912 0.55158904231597 0.77748383799602 0.79969564516887 0.46694128482689 0.5333977019541 1.8890554318771 0.10386142715261 1.4490352996228 1.0916795254395 0.41254470089611 0.4415548644962 0.35149069348772 1.8414497655764 0.76561487958991 1.0569246381191 0.77388807427156 1.1186255788425 1.0706633439242 1.8604247805944 0.74598673943739 1.3206783255656 1.2785123866159 1.4983692844977 1.6058687620667 1.3979723034558 1.1017690017456 1.6140920235405 1.1110502688938 0.9695416300523 1.6183265919275 1.8136688350092 1.2476815976844 0.55264202896337 1.6122283397219 0.87434892366221 0.10226469577635 0.067446622088865 0.046407216350738 0.0045206516758698 0.22591008264556 0.40025580169322 0.3137586158917 0.3226587732244 0.87396590404104 0.17768465471521 0.40666699110704 1.0441840051514 0.41563350564568 0.24430775076813 -0.20906762546147 0.33810674943276 -0.010984363012212 0.49589774381208 -0.22713942773244 -0.044130062535083 0.095054814328139 -0.21454517223606 -0.39941901619842 0.36517342209585 0.068880526569494 0.49919950481944 0.12856062120357 0.40586967800488 0.36854609773011 -0.36453922820494 -0.17524258128921 0.66326545587177 0.2732600085081 -0.11916140404871 1.6832958385355 0.62141726329653 0.069191571132832 0.086240327110061 0.20187594357036 -0.51133479548036 0.19484088814235 -0.13647786855881 0.3586650455713 -0.22517452598102 0.19444953990237 0.37786408441817 -0.4399883643534 -0.48935780782389 -0.33272082428214 0.51848633032299 0.74502480652452 0.37492259846057 0.30352220244712 -0.48920459116237 0.4892277318459 0.5314411488257 -0.14874323452619 -0.026791719756947 -0.047712749479505 1.1216943138488 0.055337325411576 0.31273303492809 -0.25667770013153 0.85025372769845 0.88809985096338 0.47483749508739 0.17392503589802 -0.45395881520404 0.52178149230893 0.74173519842677 0.72555792334486 0.64374755166016 0.87660628727786 0.91705472554712 -0.20268887276094 1.1878266525184 0.64734763781174 0.72319802433742 0.89466156055213 0.66596889022413 0.56165371128264 0.72913131463833 0.59001561556302 0.63158924894568 0.59296042696518 0.80263226822762 0.38037143717524 0.60201721133131 -0.12364908110705 0.55127396516591 -0.0027536319659828 -0.0014078272662523 0.50329943707159 0.085829879278296 0.65627869414621 0.54118923151622 0.3697049167897 0.22164792568836 0.19321436443045 0.45698183462084 -0.10271910898505 0.45125196868562 1.1626046997431 1.5541882910516 1.1608798042231 1.1103627857169 1.0129706262337 0.89250045883055 1.8975242196856 0.83046093056058 0.73545806709515 0.59891343463652 0.9565463871008 0.76597311891289 1.71662211117 0.74688875420369 -0.32306748478384 0.38607004381928 -0.072286478972298 -0.6082487816753 -0.34523866905259 -0.74950544595456 -0.48656263665757 -0.44449666766731 0.079188446438913 0.06131573661537 -0.45355638554643 -0.81728254570172 -0.75211870430361 0.36649974850157 -0.068890353081072 -0.4812815362016 -0.45305697452524 -0.23275744989169 -0.66458308196453 -0.79027959918645 0.83102498064205 0.52896185910468 0.63364643768906 0.70816328713735 0.86968179374183 -0.65091736170842 0.77757794088011 0.89633945305515 0.54220635906241 0.84472846220713 0.89991115135554 0.29671864275458 -0.069815265157596 0.78930248899352 0.86435068737639 -0.14702980037549 -0.31665341387902 0.59369759902731 0.71507092167906 -0.27905055587093 0.12107660566027 -0.58421700787545 0.10111895637174 0.70693478311955 1.5697663336321 0.74118783944101 0.85125531122517 -0.40971410886606 0.5734710970593 0.90369743364399 -0.40595115381501 1.6231797973962 0.90564176857886 0.88432907380848 1.0382500228399 1.2968666361416 1.846785400878 1.0259417164525 1.6576797941498 1.1435930182163 1.1123138168917 -0.32970733118299 1.6186509314604 1.1472672299421 1.4270767484752 0.7300529029539 0.098904530658258 -0.72928491006101 0.039696756893167 -0.63251486414456 0.13272486829039 0.082865019336534 -0.50883343237601 0.6553057303603 0.78061686648986 0.74500627572045 0.4983085728931 -0.037762905164712 0.78846396666738 0.82758884597049 -0.4269292728026 -0.22733609214303 0.014537747347405 0.23309852357132 1.3326775682309 0.17780263227805 -0.50450819900356 0.73764071510534 -0.38562810243418 -0.093654500923391 -0.016845570032493 -0.32399341198274 -0.19911398947055 -0.23921588607881 -0.14754939906598 0.042589055336534 -0.55908350922187 0.7029194112186 -0.097353858065387 0.16674088517769 0.28675887078264 -0.55416257580469 -0.68849869061852 0.81423267381508 0.67250227790314 -0.65943092490399 -0.70404288237557 0.50847044924724 0.44337750467915 -0.79513205627595 -0.61994028017287 -0.60116090448624 -0.16262295314729 -0.14210329182048 -0.53346374621272 0.71967000325151 0.83957079565342 -0.3319234058321 -0.24787536228436 0.97999657721718 0.65689856605158 -0.41244204045281 0.19522827228374 0.58045217419466 0.7221066186246 0.70370535969401 -0.24855202517749 0.65072226069509 0.61170765137381 0.78731691757983 0.53127599685669 0.13664270927831 1.0054732082643 1.066138073353 0.62820003030006 1.6323809556536 0.88330711764978 0.78015309317372 0.80101860216669 0.55423537919857 0.66642505206697 0.87656010718926 -0.096611287606337 -0.05292686652113 0.92944021411849 0.39464224025262 0.54738204898086 0.80195054338861 0.76064914694894 1.782759973806 1.0331864584558 0.73620871437024 0.88611297856511 1.1517874027475 1.8158526157588 1.0561391316075 0.94505532058267 1.3483238885955 1.679782024773 0.87815937322289 0.84267642352357 0.88389707248652 0.78965819521628 0.92931943020822 0.83382856567928 1.1098740427011 1.5878179983465 1.1309639204142 1.4860306024297 1.402198987407 0.85278239704546 1.0188340511209 1.2600685900667 0.65755849961694 1.5082875719759 0.97820297118196 1.8688398007084 0.38825669791462 0.056405111321238 0.071966315993986 0.067017484371917 0.90951024237667 0.68182009534046 0.4536530600137 0.0062281783422525 0.47482852587487 0.3531471186526 0.18542575389957 -0.18060455546792 -0.24354948380158 -0.1282431445299 0.25064261841389 -0.14047390568223 0.33834733908855 0.21486884130062 0.11143656770923 0.15989936737027 0.085019640724488 -0.070584981292703 0.080850428987275 0.14574545188794 0.1406862943406 0.30609873330724 0.35844511260346 0.53365861344843 0.35963640450743 -0.00031485432896675 0.35031025168696 0.30847005591169 0.063540383566167 0.14752608772577 -0.024475150612293 0.091676820617827 0.075960700870658 0.36301242096633 0.041423863139279 0.72328193941729 0.56373883259925 0.70821986084262 0.40875203588407 0.16756154770203 0.088141185334266 0.97641264573009 0.51773732094136 0.74440577114863 0.58393077135495 0.75893436153844 0.20553881923362 1.4907909178152 -0.37266514504301 -0.36325676905303 0.62771385413639 0.60285722764853 0.6098203944139 0.6110451154315 0.6725283113328 0.32079438665667 0.58768834523724 0.6083771619695 0.6993302368116 1.1445729931757 0.62927697322743 0.14750858898799 0.66539644406977 0.86714104300239 0.74245716671097 0.38362051673667 0.5709668673344 1.0379686975613 1.0322201269516 -0.21270279999404 0.86573835005644 0.74918610826228 1.2095755966107 -0.38658131685819 0.90878921496123 1.2641399791703 0.68311886855428 0.81785817911803 1.1359093459419 0.76576220796602 0.84650504241224 0.65609535614603 0.26453449404635 -0.053182838117243 0.67364919883454 -0.017361642501515 -0.43815252716122 -0.23833333295874 0.95049750965758 1.0348548073904 0.91512233452965 0.80632344275439 0.93206646258547 1.0282531146783 0.90773668382299 0.39843582075029 0.39608162567108 0.94329473333542 1.0614429747218 1.0102277817239 0.81463869433808 0.47786757005552 -0.41539473724193 -0.22452197965053 0.083147612398804 0.25758347744465 0.56237776341655 0.30776584052175 0.41420958346574 1.612771553965 2.0883257254599 1.9239844555602 1.318931505687 1.2002435976123 1.1928248528133 0.92377453049665 1.0886665737496 1.6094293136459 1.1800482028693 1.0736537295663 1.013912887596 0.99493234774925 1.0347950910888 0.92472834791136 0.95355986028072 0.89368476378061 1.0533816123789 0.92383162844802 0.94719000702765 1.4938779193116 1.0471875656411 0.92332208690181 0.81624635727404 0.70478894717745 0.7882788598663 1.1951977073922 1.0832117568879 1.8174039371148 1.3220179486807 1.801271004109 1.0603539617929 1.3379321111673 1.8326566707824 1.5367868814229 1.2691483867679 1.1716494697364 0.76812712590853 1.4636864426018 1.3902682545412 1.0708153161888 1.5463647342682 1.2607067991607 1.6763280855735 1.5335404488442 1.5084162352427 1.3330916206444 0.87563782157581 1.0382603835371 0.87903821902645 1.6762911691891 0.68243481321299 0.88486444394385 1.1783650306254 1.0472151617846 1.4963654061935 1.4692178485453 1.1238802574478 1.5142466462586 0.99845551896258 0.92866477651875 1.8187853465299 0.7117163241428 0.82926893907647 1.0614667855025 1.0494629891567 1.2142221060872 0.76647224221905 1.6344253169244 1.4523929312589 1.8286581425631 1.1886973531429 0.72269331159477 1.0412116152981 1.4582114510872 1.5140917830277 1.2093257377541 1.4553455222706 1.7858938207562 0.97914126616857 0.81860231886598 0.80812257106436 0.75855322695541 1.8309961952326 0.79854836744578 0.73913904849334 0.8160426377613 0.94487093396165 0.68710926275792 1.4506637174307 0.63692544034766 0.78261655437232 1.079780902118 0.45419037301461 0.65369550445682 1.0777432133172 0.97960608739819 0.78185311306143 1.6400640446101 0.66403773844499 0.69562519311234 0.57359128072332 0.5159867178091 0.54750134768545 1.3928277793495 0.57292323400313 0.5717230433797 0.32290211340136 0.43741381150691 0.97967784813389 0.72430561542442 1.4744516983159 0.69797699243102 0.71457167664736 0.77814349943977 0.75118061043235 0.28065045416586 0.081100010769695 0.67233890202969 0.65415521001501 0.69236579549896 0.63957660839846 0.060962718933265 0.25863712491417 0.57790235269048 1.2919129357338 1.012879965889 1.6676294757693 0.65987534682902 0.7560956212722 0.69484890559525 1.2608524536073 1.0826259738622 1.0025506608681 0.93461910979645 0.46934643812729 0.59119789474648 0.98149217079836 1.4823425897904 0.54841407486963 0.87954272905778 0.97150279544232 1.2509018222653 0.60592290612367 0.64186276515714 0.89116404075762 0.51231219160019 0.56302543573171 0.29318147807904 0.35425989901091 0.073267776372652 0.21052519315918 0.41377889837889 0.067952018132286 0.37868718556444 0.060778363349666 0.13092016621627 0.41373214772592 -0.043548351574462 0.063369208926824 0.054516953202144 0.48860275342852 0.2599452444715 0.21168120705926 0.22008767634929 0.47229940494245 0.62569205039515 0.072913829701814 0.079808665090277 0.19724898711938 0.62871917882994 0.23541981956606 0.41129625501866 0.61719043218955 0.54440139256283 0.53718165457144 0.57828037353346 0.57794009357758 0.50844282762095 0.4892164206589 0.52344274651822 0.55669398615754 0.64754987361375 0.59086398919504 0.57323226090034 0.61326859770724 0.44198936087069 0.54624513904304 0.5737993015231 0.5874028128967 0.59395536210838 0.60192208003018 0.20233840244741 0.33288370185962 0.38333554759942 0.62036047857339 0.57976816582953 0.31688780147454 0.36749393568933 0.75642510097541 0.77916985057755 0.40379579078861 0.57659891335008 0.65973738273643 0.75318877569539 0.22955862876238 0.57047462798745 0.76618121211024 0.58962160223364 0.75285274908745 0.68001517838758 0.76137058150024 0.72005386855189 0.63179833266216 0.56699694055879 0.6784078779047 0.45236604738596 0.69795703372197 0.56674605010632 0.5334583101756 0.62975077426686 0.2987314711604 0.37904739710375 0.044128228840074 0.18100320982985 0.4072842394913 0.50878648338463 0.39469290403351 0.32342427586378 0.071470266764531 0.49170852983837 0.0051591107831101 -0.024677855486948 0.046519710123733 0.32475934548897 0.051712874450903 0.26407812080119 0.057387354562428 0.035994512593285 0.46936196730538 0.042157657904655 0.24648460040609 -0.21287298646511 -0.25094993965512 0.23195549120217 0.0034276520631418 0.13574161392885 0.16557363659535 0.28219618466212 -0.15413415073327 0.46186848769782 0.1435