# vtk DataFile Version 3.0
d-2__ created by libgimli-v1.4.0-22-g2d6c0250
ASCII
DATASET UNSTRUCTURED_GRID
POINTS 739 double
35.25	0	0
34.766081542978	-0.82021566092004	0
35.632578047987	-0.72883630452407	0
24.024974223709	-3.3959938323052	0
23.653360812241	-2.7288670633191	0
23.229010511392	-3.3529576731171	0
4.0418655321018	-4.0506862785614	0
3.4460515782386	-4.7439961566826	0
4.2311515920029	-5.0809003825016	0
15.407766344465	-7.3730645449994	0
16.233299169082	-7.2585920105004	0
15.614499752591	-6.6705036155538	0
0.87966150056611	-3.868344094725	0
0.53946997502051	-4.5402672655454	0
1.0423668045247	-4.5416868935558	0
10.044780655634	-1.38528895599	0
9.2449702923403	-0.85837555044783	0
9.345362148561	-1.7444613449413	0
9.4404614270197	-2.4142126442597	0
8.8670364751027	-2.2005241160204	0
8.8981197610435	-2.9065452242835	0
40.643431096227	-1.8007378109998	0
40.90951054121	-2.5500139899776	0
41.411624169268	-1.5999858451814	0
30.395367991702	-1.9693062955434	0
29.554682165597	-1.8859186953224	0
29.759185494429	-2.7694853144209	0
5.1523452594718	-5.0731882456395	0
4.7333838933121	-4.4274311535604	0
4.8293365853565	-6.5416884368369	0
4.6531391287001	-7.357849878802	0
5.3618836946219	-7.2453518540761	0
2.420340802333	-5.9803755969777	0
2.2095578170366	-5.1629239562001	0
1.5749245865607	-5.8280971878667	0
6.4631285840114	-5.7234774575293	0
7.0614370368234	-5.3339000067243	0
6.4310774709665	-5.0305550495624	0
6	-8	0
6.8149088859959	-7.1369339193422	0
6.0380890087879	-7.0593430649453	0
2.337095399571	-2.7024130282098	0
2.4182611852565	-1.7461085668484	0
1.7314028473745	-2.3660256592611	0
4.7120578677277	-5.728342736769	0
4.0027109767498	-6.0857371454819	0
5.6471126438986	-6.5176179037	0
5.8650720782736	-5.3997839601918	0
5.3575291744975	-5.8713437985688	0
8.8206498418204	-7.3549687861435	0
8.4413342175328	-6.6552453659709	0
8.1531633313928	-7.3876617519353	0
5.9380884743294	-5.9807090902451	0
6.340105930545	-6.4315959866684	0
4.0658421990741	-7.0053381340916	0
5.3593802187152	-4.2767652155575	0
5.858312820725	-4.714231643898	0
3.5539747292485	-5.4650356113086	0
3.1722088864894	-6.0889775775066	0
4	-8	0
5	-8	0
4.9041715027695	-3.6404381370114	0
6.3841275467394	-4.4206981320864	0
6.7082817957996	-3.6916407749453	0
5.9717371155479	-4.0622525356292	0
10.455786908479	-7.3899923003538	0
10.069732056581	-6.7108805202894	0
9.5950164365213	-7.3631486063629	0
2.7298127856572	-4.5788385214117	0
2.0726289944547	-4.3946730213117	0
7.1327228036634	-6.1871299893166	0
5.9922272054042	-3.4924814834306	0
4.2186757807963	-3.1085730056651	0
5.5515996961085	-3.721657217286	0
5.5244600938001	-3.1299237043516	0
2.921729566446	-5.3311984568052	0
6.9648131056334	-4.5768127754969	0
7.6649814503624	-4.8682074785256	0
7.7420202437717	-5.6148710814956	0
5.5676567450914	-2.3292148446412	0
4.9222559921608	-2.7486617302843	0
6.1971181697204	-2.8540900672423	0
7.0212731257583	-2.6573891139302	0
4.0890680178231	-0.80500860446348	0
3.2172049700142	-0.97874737870402	0
3.8193790308275	-1.6629755476804	0
8.3416777787407	-5.1833881033199	0
7.5572275114128	-4.102709076165	0
3.5794694184609	-3.3774522548669	0
7.6088637440976	-3.3061553813084	0
8.0396305197243	-2.3832345250595	0
7.2501992898856	-1.8315241352993	0
7.8258608922489	-1.346118462439	0
7.0328259049448	-0.91494393004697	0
6.369261658854	-1.8257400853179	0
4.9672453990647	-2.0402364640941	0
5.4220884530876	-1.389640384905	0
4.5794425818972	-1.4753994016058	0
0	-6	0
0.75115345976489	-6.2921750472139	0
0.77632627405085	-5.2976449958587	0
2.3034188316378	-3.3286511292171	0
1.9431807852442	-3.7381185229599	0
2.5260903249391	-3.8678537932067	0
7.8699182234219	-6.2360358230764	0
7.6542578277896	-6.8451202459774	0
8.2655479110563	-3.2088163092203	0
3.2040934351226	-3.9685105959404	0
0.734375	0	0
0	-1	0
0.61443623639171	-1.1818049446663	0
0	-2	0
0.52853507360799	-2.6508136276114	0
1.0036880328999	-1.9729809919743	0
1.8146822935359	-3.1226852479236	0
1.4514208372378	-3.5701769998337	0
1.5278007240401	-4.8942112229174	0
0	-4	0
3.5512838533278	-2.5599597745499	0
1.4868063674291	-4.1631811125537	0
2.9034746231188	-3.1852042312138	0
2.8721321228156	-2.4183325865144	0
4.3412571586717	-2.2647172445937	0
2	-8	0
2.6659100987264	-6.9662786892768	0
1.8544139966028	-7.1043716111303	0
0.5079131956491	-3.2995937075409	0
1.1307352897668	-2.9800868127229	0
3.4693050880931	-6.6981202008635	0
1.6868535240114	-1.6376438628027	0
3.440232320933	-7.3347847410184	0
3	-8	0
1	-8	0
0.61268418967956	-7.4660603407378	0
0	-8	0
0	-3	0
4.8535502314262	-0.7073385918545	0
3.1733778454903	-1.8751252197409	0
2.9375	0	0
3.671875	0	0
4.40625	0	0
2.4330107061784	-0.73760748326961	0
1.3333015130559	-0.9315959698365	0
1.8766050689234	-0.56293537948883	0
1.948537503014	-1.1293433308992	0
0	0	0
2.203125	0	0
1.46875	0	0
6.1316050836961	-0.78450548287625	0
5.484535700698	-0.57615159438342	0
7.7277917280599	-0.60111054434286	0
8.400860817486	-5.8876225358776	0
9.5630097790906	-2.94368847844	0
5.875	0	0
6.609375	0	0
8.3805420158992	-0.72883907306127	0
8.078125	0	0
5.140625	0	0
7.34375	0	0
1.9753969304143	-6.5108597214121	0
0	-7	0
1.3689252361078	-6.6773065404534	0
1.271866542911	-7.3681658699021	0
0.79843667000352	-6.9610346280904	0
0	-5	0
8.0934491987285	-3.7402798363746	0
8.3526223075714	-4.3862968716516	0
8.8812932222946	-4.8495908353712	0
9.2495369766643	-4.2685648122416	0
7.5241925852712	-7.4735725008744	0
7	-8	0
9.0708714075818	-5.4858233310482	0
10.678386559089	-3.3272598792468	0
10.804571464251	-4.3307964217889	0
11.41891875058	-3.7351133902904	0
8	-8	0
10	-8	0
9	-8	0
9.2512683726635	-6.7158200190867	0
8.5	-8	0
9.6398646977454	-6.0569476299073	0
12	-8	0
11.701190691715	-7.0178795707848	0
11.202571672499	-7.4461441005432	0
8.9599697063497	-6.1597869948541	0
11.233165938823	-5.1597635949138	0
10.502612452147	-5.0816627650991	0
10.624270039711	-5.9297050009808	0
10.875476750227	-6.8176234265893	0
11.297502262295	-6.4093708180867	0
9.4009670005084	-3.4945762481523	0
8.704031409935	-3.6771790743333	0
9.8711091463184	-5.3516531775058	0
9.4076131337331	-4.9197440922233	0
8.6148589807278	-1.5468768747086	0
9.9767463500217	-4.640261707511	0
10.015519359214	-3.8912900484212	0
9.9562334753365	-3.2602198917368	0
11.542293243434	-5.8727156156799	0
11.533831101922	-2.9603017492445	0
12.154184826355	-5.3073953175186	0
12.205039694262	-6.0302968717877	0
12.565653848073	-5.7317611342705	0
12.283650708161	-3.5816924475913	0
10.110157211253	-2.637865210986	0
9.8587877567004	-2.0420494257341	0
10.28125	0	0
9.546875	0	0
9.9649662999966	-0.60627195995189	0
12.70465236974	-4.5100365304716	0
11.770287658143	-4.440650932946	0
11.617832441555	-2.0064323806666	0
10.859498247607	-2.4328581497823	0
8.8125	0	0
10.705622488639	-0.78896034843682	0
15.06553672398	-6.276028353677	0
15.680974072729	-5.7849759373399	0
14.632715739621	-5.6685994613595	0
12.365976924043	-6.6743633558583	0
11.813005918224	-6.4031309146134	0
14.38647420984	-4.8199859379677	0
14.194804380357	-4.0595150993604	0
13.597094220068	-4.6359830373028	0
12.293397764589	-2.6540853557846	0
13.34178425423	-3.6968226496998	0
10.821707318997	-1.6462338807521	0
10.342661210516	-2.0275986905901	0
14.010238366691	-2.1919402828937	0
13.55729974309	-2.7484698825173	0
14.240137580401	-2.6619477668096	0
12.917051988236	-2.4369691973858	0
12.879625457607	-3.0259697333822	0
15.191535490918	-4.924313627692	0
12.484375	0	0
12.086565658987	-0.57709382902849	0
12.758125436677	-1.01796672845	0
11.96236122703	-1.2284582090393	0
11.015625	0	0
11.318264939988	-1.2611066042886	0
11.475466841094	-0.64060339861446	0
12.852009680744	-6.1773420833061	0
13.072225890854	-5.405038899661	0
11.75	0	0
13.886294673494	-5.3329592763524	0
13.758879284747	-6.1456668635604	0
13.226726949397	-7.0485511502546	0
12.486647683567	-1.8707614222818	0
16.082690019272	-4.8838028544159	0
15.588249595521	-4.0858229696258	0
13.21875	0	0
13.352540526941	-0.46325628238061	0
12.45258115371	-7.3503371603357	0
13	-8	0
14.832628878105	-4.3011594131318	0
14.166838931635	-3.2806882428375	0
14.837679056872	-2.8631337404129	0
14.652463129072	-2.1856472856178	0
13.572273204992	-1.0938488821995	0
14.257450469287	-1.4834733391051	0
14.136499103215	-0.64728730968009	0
11	-8	0
14.906932583358	-6.8595391989725	0
14.50530276564	-6.3880454815302	0
14.180657895825	-6.9822987629868	0
14	-8	0
13.361788428331	-1.8441238959815	0
13.953125	0	0
14.860489128315	-3.6273128087287	0
15.023516208248	-0.78525331169581	0
14.6875	0	0
16.433738536114	-4.1591436718784	0
16.8292022244	-4.7493086727781	0
16.492671238228	-2.7570829143144	0
15.55378227869	-2.2395328783323	0
15.583809923027	-3.1816603901125	0
16.41147786877	-1.8589837305121	0
17.312602990133	-1.9876176433335	0
15.06680452402	-1.5886399739304	0
15.85107129564	-1.2339717480057	0
16.195600797192	-3.5412022318805	0
17.114058842164	-4.1917737383704	0
16.896094149161	-3.5575267671562	0
16.811448977771	-5.5938104794507	0
17.491952228104	-2.9614820164517	0
16.15625	0	0
15.750627365419	-0.51721425022099	0
16.30045814652	-0.5635762108592	0
15.421875	0	0
15	-8	0
16	-8	0
22.756862915706	-1.8570017610221	0
22.344534171134	-2.5456024048519	0
22.969878419642	-2.6472927337462	0
20.044005905968	-2.534398285706	0
19.517693861884	-1.7376224821256	0
19.295726866527	-2.3913520544351	0
16.40676546016	-6.4555129050585	0
17.018238820229	-7.033983679535	0
17.634670927242	-3.7791145708047	0
18.858048753151	-0.56694169011229	0
19.09375	0	0
18.359375	0	0
16.853086776378	-1.0597567726391	0
18.167541581048	-2.4176717555584	0
17.627135722909	-1.2162305966125	0
16.890625	0	0
18.803920155665	-2.6260600115479	0
18.805716510343	-2.0028710992174	0
17.596801646645	-0.52497032841282	0
18.243386992724	-0.86293430039319	0
18.167765680984	-1.6205595504649	0
18.884682322029	-1.2506979597346	0
19.738008291269	-0.72929214829284	0
17.625	0	0
17.30462052823	-4.6267683525864	0
20.055946740925	-4.2871034324514	0
19.251021539757	-4.0538766602334	0
19.724539057624	-4.9713633198339	0
14.698061916436	-7.4441215935864	0
17.612789726548	-7.4211394446211	0
16.96875	-8	0
17.9375	-8	0
[...]
CELL_DATA 1349
SCALARS Coverage double 1
LOOKUP_TABLE default
1.4302879758871 0.63936627730605 -0.28738593047273 0.19024663603275 -0.30593966646799 1.0618124142859 0.69935929783294 0.70657083868466 0.83776118587647 -0.34842284891384 0.017632180606723 -0.27946065969881 -1.2459874300232 -0.4169413226231 -0.18998804235102 0.53729660214267 -0.27327090930906 -0.10176702933085 -0.46082474559326 0.099010116871227 -0.30062436107795 -0.39080943427145 -0.1040188570451 -0.23616254265178 -0.39522600128233 -0.43617933991926 -0.59795942858194 0.053737538334998 -0.2367274616386 0.043024861650198 -0.36174755916771 0.070381512690042 -0.2145025293845 -0.090312602897515 -0.55064344094757 -0.018267564938795 -0.19086629744318 -0.47317374610496 0.23435443974106 -0.040169059354207 0.058251614994378 0.20766991707296 0.044265991516179 -0.90789660475634 -0.41187469925649 -0.6762451412684 0.074629631991441 0.039932122487845 0.33711784890876 -0.16967459940097 0.23943207152961 0.14937598684402 -0.31273397685085 0.16589202110793 0.36838938012044 -0.67314392100019 -0.37269255483304 0.008820594438512 -0.58167544644206 -0.14195747066112 -0.25027648475757 0.16841359038683 -0.023929810941208 0.3789106167264 0.29642738023203 0.37761735627716 -0.49297685471356 -0.68946643283494 0.50697594120546 0.39807424331942 0.87066165272703 0.38356999904762 -0.40261311655096 -0.50267000303469 -0.14159764950924 0.30095013927281 0.32203740578891 -0.65892655241019 0.64715662352667 0.90462464565147 0.4474792956366 0.42303684656022 0.48976908519176 0.41056412141615 0.47584916006099 0.78450351971429 -0.86149436243152 -0.28997305835221 -0.82101303841234 0.72084531238064 0.078452913957164 -0.43319200358655 0.79244363411913 0.97041934641997 0.35581123496022 -0.35620214510856 -0.44789862800973 -0.93484702681182 -0.24684555429866 0.43070310236591 -0.63445914964479 -0.94735323257509 0.45404120571927 0.78336970951842 0.45907224848709 0.5227266287598 0.74945186662634 0.39592963834461 0.10565348236564 -1.125324208527 0.048390674662677 -0.082340713555462 -0.26741413097038 -0.041101685604655 -0.60305897680689 0.44747225299839 -0.65658645163198 0.45555531744609 -0.3186970086046 -1.3087346879995 0.092987754715731 -0.74426707156703 -0.62953520471981 0.576283291238 0.074489102851621 0.065290804158467 -0.66492653854236 0.64805720254401 -0.036130266908331 -0.37634838010612 -0.97811856478289 -0.25656845237251 -0.37137867195504 -0.37780895849405 -0.65060768554853 -0.56871909815685 0.43992505793565 0.52252634186967 0.62906830009838 0.005091771222577 -0.89200731636597 0.047857999086771 -0.23057005879468 0.92938793646036 0.63111885806259 0.60137062047529 0.407722635464 0.2557365969871 0.590718050465 0.96047419489429 0.44991536550412 1.4337830282356 1.2946795667946 0.87055968208839 0.67475616577906 0.77036399948457 1.0148618862864 0.77828752223173 0.88380553431412 1.0519768484616 0.64123913109161 0.97271054778299 1.1042922087003 0.82641772451899 1.4729060039896 0.9851439859181 1.1792146810719 1.13583764825 1.0650060415472 0.88280074438538 1.0116342885648 0.62032769243252 1.144609037265 -0.42057786875937 0.73693248464915 1.4945336127338 1.3658401205752 1.3598785293319 0.095796983406508 0.11094109691659 0.22395715941713 0.34127810484178 0.80667425509843 0.99890361855229 0.86761932045411 1.3341636080358 1.0969208423751 0.88092636276343 1.7341227763225 1.5489978749292 0.84729872297822 1.3012173828944 1.3675914212873 1.3998189732304 -0.61561926496113 -0.44617510993365 -0.95466475689042 -1.3219148503917 -0.72749105482376 -0.33289170175979 -0.19462047916196 -1.2760350843025 -0.71642398771033 -0.9552655613392 -1.3299975457784 -0.89267598783361 -0.57100694406953 -1.3215158327335 -0.54979334292979 -1.1078396249634 -0.29350981589931 -0.28540723887684 0.87798361018051 -1.130807021999 0.22050891426489 0.72476305443267 -0.68288568188753 0.47704595542164 0.42771199198248 0.68821279510789 0.49697356987184 0.58802504649542 -0.83755825189909 0.65657041512948 0.5980517888071 0.73515082968721 0.33315711847537 0.30964980136084 -0.030548725378433 0.38455812919069 -0.51913448773708 0.17939373141709 -0.76594182586735 -0.27957195855222 -0.75176407047237 -0.2768922639394 -0.34715424391179 -0.40499705845597 -0.79085319309994 0.013797781367393 0.58206061905407 -0.18323251416884 -0.7070312819996 -0.18070104354704 -0.051056919586419 0.98085898455845 0.3804024912143 0.4139877486372 0.72100028049387 0.22123326321473 0.81458605693233 0.042340531298856 -0.39159438002047 -0.20578403974148 -0.42839257680135 0.34364570896535 -0.60336207391279 0.086483898265648 -0.53195182102223 0.6311903928705 -0.47472572273478 -0.41098798624117 0.75783011479934 -0.41496091797038 -0.079483230533137 0.64954817519038 0.70323532740325 0.67568633906428 0.79777951283276 0.36417189451624 0.76570059906323 0.68973706691039 0.73451830430917 0.21108936313539 0.64153114511145 -0.36348725619698 0.35806426833664 -0.59511005186953 -0.44609079943146 0.069482190909148 0.64923397045535 -0.71785539469328 -0.59200378626058 0.54448909596835 0.71400230054124 0.29847897332664 1.2353670746336 0.62730200795662 0.73023796729048 0.2505622385063 0.66457487114116 0.11133497216128 0.45075580699796 0.00037140489850358 -0.017232645902744 -0.14752122718276 0.0085745644074303 -0.14300647300298 0.56972847070132 0.15073534215015 0.68541367105499 0.64783395492592 0.76675564213559 0.72603378471338 0.72880245056223 1.5031825116806 1.7331545343344 0.80655861352843 0.70872401143034 1.1446603160048 1.4564739980927 1.0101009633131 1.0355802029897 0.81405032294107 1.7940780677774 1.4829897333189 0.95358173383049 1.2194067899425 0.60256758133279 1.4465420227017 -0.60027255535926 -0.87820980311857 -0.35766417301613 0.50225104500085 0.32612105384378 0.11314175967816 -0.66211914165662 -0.30492012048232 -0.44546726516538 -0.48703949513307 -0.25994802346445 0.10622227901154 -0.17585752287517 0.68221415232974 0.64071162673608 0.52818591022707 0.84622580620877 0.56177381317369 0.60489120439244 0.58508951883174 0.85478643300855 0.76899477953566 0.85920286265466 0.80918898330465 0.67487539909786 0.72867273563563 0.53836271771362 0.7048280172589 0.83218219506566 1.6115785369574 0.80977782645336 1.3160882797845 1.7841104334485 0.71273360761668 1.1636982825785 0.99376971049382 0.76124366175126 0.91084848319081 0.79462848979789 0.68937024664513 0.8722778871456 0.7376667556679 1.0362176035123 1.2793723740618 1.5923865172943 1.3190829894141 1.4064270259154 0.10369869127868 1.4297538591295 0.37239912296523 0.15942286743189 0.85952238932189 0.31303848151339 1.5387691014024 -0.02718639175293 0.71366376575094 0.6893464795024 0.73280297968516 0.3980369811668 0.71253491273891 -0.011718690358428 1.0924795412503 0.61278084278682 0.38060273432543 1.4573640400292 0.19622297687055 0.19386144867593 0.98725632898794 0.7421160742864 0.32900726785997 0.59755264864553 0.67890507554337 1.0840874096008 -0.17701496255796 -0.5251217814989 0.21232995248095 0.024359934459445 0.056855348071603 0.29108441170479 -0.030589079330315 -0.021730877920276 -0.17907716697958 -0.139533336126 0.10429309853876 -0.053242961480762 0.017816887113372 0.057350210907073 0.27146655324531 0.19397104671567 -0.003912878503274 1.7551682633806 1.1134228263987 0.85412916998289 1.1829873571448 1.3633736184669 1.361848363232 1.0262354404083 1.1128642511576 1.6549571333423 0.85100070809118 0.82902627764086 0.6789539774554 0.80399854950368 0.66276495853558 0.60589783597416 0.66539651506867 1.9683389040517 0.62877576335734 1.624289589478 0.67156346496023 0.65763307488052 0.64716752669436 0.77723370348002 0.1419454936227 0.48918679306573 0.56704517059644 0.76499697746173 0.81885465212395 0.71972857581578 -0.23756230019146 -0.021981736640928 -0.19250061756456 0.41564526730498 1.2016028207209 0.88682157372996 0.67738983167993 0.70227487991027 0.60311374456482 1.090330933983 0.91418807120048 0.75205503860919 0.96972289571059 1.1394367306156 0.5936920098708 0.51469479036742 0.66234168614201 0.70177783617941 0.705280804234 0.73745857053347 0.40774690006162 0.52612707189902 0.44800916417628 0.64379456708758 0.4084995732175 1.6566740201012 0.71289751407987 0.84839238691639 0.85420164961858 0.98897999254882 1.5317715343072 0.9939921160285 1.7552439936886 1.6496526640438 0.38365080529946 1.0745523934443 1.3875029583007 -0.045632832820954 1.1616511811449 0.58885084088886 0.77817475639753 0.85676544369282 0.40350394798007 0.5779881867796 1.8907043924457 0.10896546831363 1.4406106871111 1.0302944094158 0.44906229541556 0.5172577397825 0.3972679374161 1.8388324191756 0.80272427890916 1.0310785323371 0.78614550436474 1.0928751665299 1.047821661894 1.8807760472317 0.83082395888388 1.2865730008157 1.2605403994101 1.4889324365717 1.6126867935438 1.3720522068431 1.0683832744368 1.6177351213549 1.0903374009979 0.97151214355171 1.5965998654806 1.8360201228457 1.2158089771595 0.60347546615615 1.6025836588848 0.805057329851 0.10902133149245 0.069165746474648 0.019505657686382 0.022060624232107 0.21290093061803 0.37055996744246 0.25597333334022 0.28908658519707 0.82607555399435 0.17800968627073 0.36191504449807 0.98708954737356 0.36766940311576 0.22279092909531 -0.076279549650733 0.30446783505082 0.03104047234008 0.41204736759274 -0.10716941568042 0.02955312075027 0.11301123942893 -0.10254982133345 -0.24547213471096 0.40540232666202 0.092942696196464 0.53071664696417 0.14693708069643 0.42744185269903 0.34885522188642 -0.19241929472055 -0.045935520014177 0.70198784568926 0.29681571152175 -0.032262149172845 1.7012600032188 0.66398821265908 0.10508835068666 0.086071683464604 0.24934659300407 -0.31340794632138 0.23133281627453 -0.09227485639054 0.32414110266427 -0.14222538075593 0.21059920304443 0.40212456436097 -0.31167987859366 -0.30426879718036 -0.21854884593915 0.55072668343918 0.70258859653943 0.42144528576905 0.29874651963907 -0.37726460785144 0.46390537514744 0.52762719387483 -0.10432470924024 0.023040103259324 -0.0075317193550647 1.0823386886315 0.097940426771379 0.29761051707168 -0.14777764083367 0.80333549641627 0.83108047331434 0.45004306925912 0.22694347097819 -0.3458808318057 0.53603534839086 0.7626816101231 0.7499907901285 0.65185033908415 0.84283709633133 0.88970731116524 -0.13002396322444 1.1424428327717 0.66260424404972 0.74361749871737 0.87563262728234 0.65845400767291 0.50755809154421 0.75400880106649 0.6226955961248 0.61789307679498 0.64933440274 0.74935845798032 0.44069368107934 0.62115430861977 -0.027265099489573 0.57534455673681 0.085544835589025 0.050306613982809 0.50890679745487 0.1355094250049 0.65166309105023 0.61356168131411 0.36304721689381 0.25156054378267 0.19736917367179 0.42249872896086 -0.041107726756849 0.39039518007847 1.1585927670511 1.5501024611453 1.1354619781982 1.1109527579635 1.0024272449446 0.94245733191046 1.891079874404 0.86531454251764 0.82586088423601 0.60823527991236 0.95871410842396 0.82373337885007 1.7344019906347 0.72980838433684 -0.26591781669434 0.38225192889166 0.0077467919281542 -0.49376379938153 -0.24858222927523 -0.67229922902061 -0.42926704477424 -0.35058001762614 0.13388508813042 0.11101369257069 -0.39103740990692 -0.71397138720618 -0.62942710766542 0.41562711837564 -0.0035260596830881 -0.42670417122677 -0.39995491719911 -0.13241696577765 -0.55647798225996 -0.77363640506517 0.83899966058041 0.56587408087619 0.64728333710745 0.75705622281847 0.86480887681545 -0.56113710475981 0.78189553039198 0.87013885928874 0.53609843863967 0.83960914024105 0.87989201289848 0.29996578347191 -0.012922986623513 0.80176683129122 0.8457634758406 -0.082376999281852 -0.24133518999795 0.63487208446744 0.70767581727482 -0.21171021853909 0.17191073411774 -0.54819867483458 0.1049384990981 0.76790498505755 1.5841012985194 0.74624872469449 0.86542148753133 -0.36942451802544 0.65018157604645 0.87309412674362 -0.44445743790544 1.6289293203103 0.9175151502107 0.87655978080932 0.98732564598739 1.2923159941373 1.8482062262582 1.0175997772173 1.6290779940275 1.0900804580262 1.0816100838684 -0.26799236693577 1.5935136389281 1.1213078933975 1.4504937892725 0.75720680640286 0.15616783415464 -0.65510639785391 0.085901930894212 -0.6224257161182 0.20796125077669 0.15736775328202 -0.48986768444476 0.72916801218196 0.88255806270362 0.76848205690034 0.55517297731226 -0.029157789560366 0.78823966117604 0.80681104342491 -0.40511607270838 -0.17859825271324 -0.027985999731895 0.30471344834513 1.3347382653558 0.22370807437031 -0.50983806890148 0.68102645207131 -0.40043752912857 -0.10243554142709 0.045235138721032 -0.32933116830444 -0.21168382307316 -0.2644657772776 -0.29994322963437 0.0466557614806 -0.50298702854222 0.73930393026038 -0.12982558281842 0.14305627890798 0.26507749506955 -0.49857974323607 -0.61453871545256 0.80176256783878 0.68411369468309 -0.58058028971358 -0.61234730236594 0.54326473381906 0.53046784392204 -0.76127996776822 -0.5072809357694 -0.51516273392407 -0.1146655456317 -0.11444042869251 -0.50099879774349 0.70292386059388 0.85883904649535 -0.37899024332046 -0.24003658925843 0.97437316768705 0.68487458131222 -0.2728454453458 0.27782652687354 0.66304911197707 0.79200734607892 0.74700588783246 -0.27442618499858 0.68462323790453 0.66209739253241 0.82610683324792 0.59287802017758 0.23167369321526 0.99567909424534 1.0800797328 0.67758953039733 1.6335354955032 0.88926992710616 0.81433182704929 0.8241729616406 0.55096124540493 0.70166852479792 0.86500940593972 -0.12586451544681 0.00054827634878651 0.9244664088563 0.44857823387091 0.53770184562662 0.81837028536578 0.75650782374489 1.7538328016946 1.0217383260795 0.75735098499806 0.89529453148258 1.1256093717606 1.8221483248284 1.0282007753669 0.93991575467398 1.3916114011475 1.6839942199252 0.87075311790274 0.82401684302486 0.8783714755987 0.76561044344917 0.94981085183426 0.83813450695495 1.104135279195 1.6046796561782 1.114679903344 1.4904277766791 1.4017904492083 0.85070309037133 1.0142320773208 1.2575376638278 0.59168026251155 1.517315925493 0.99965341161588 1.8734706281993 0.38737312967574 0.052053297779228 0.048443201136501 0.044218260185746 0.78827503705325 0.5917842935518 0.38178599531812 -0.00099730064152207 0.40915024113829 0.31186243678899 0.068003383367358 -0.3526740842302 -0.42681421541441 -0.26255271521213 0.14241600586233 -0.15926258169046 0.22036804803361 0.20297832753576 0.044058596782345 0.030792466514949 -0.063242404785582 -0.21544497829567 0.072014068936655 0.010249853436509 0.048925940116255 0.26963286893413 0.26521946400336 0.46747273825003 0.29348199292703 -0.099447886111518 0.33697262656654 0.32105953002056 -0.04332005307739 0.032320331511466 -0.12125193730646 -0.023388236007015 0.029690365166301 0.31694273698763 0.023744284541332 0.75216126770011 0.5809524815813 0.74792166460832 0.36402210110316 0.022675263463582 0.026942829085012 0.97192643300813 0.48751250897098 0.783863858286 0.58700837890347 0.79767324513488 0.2087516593803 1.4904296984628 -0.52889389141727 -0.48134267491251 0.66108099266298 0.57482838201801 0.59261411108669 0.54167054805379 0.64074148182515 0.21519904779921 0.61474891273945 0.52845368022622 0.70435354121532 1.1500313299603 0.56017601445221 0.099524019494343 0.66899577269981 0.88837094619494 0.7138639570574 0.26275399369574 0.58470484249883 1.0763978209293 1.0272996610476 -0.37665323576723 0.8766108730534 0.78904287483635 1.2059480359674 -0.53514242120942 0.91538870998005 1.2545524515197 0.64459441316415 0.79562645127637 1.1304818053222 0.7434464546464 0.86019749495986 0.65395280643423 0.17178424557693 -0.22038339437819 0.63983633810278 -0.057715347305683 -0.52664526287865 -0.41645490234015 0.95887186591534 1.0575569084833 0.92679182351651 0.80776576238652 0.9424065901884 1.0563210064902 0.91736514448333 0.38984074581658 0.31866517727993 0.95219320092632 1.07619385539 1.0057259709146 0.80155783073021 0.46385663830584 -0.46001654979895 -0.34811988623462 0.034516893241637 0.16104225497522 0.51532995494798 0.28845047441934 0.39487237020844 1.5866018827123 2.0395161759632 1.936706398974 1.3210031372497 1.1924730482522 1.1850505005047 0.9343850704733 1.0828718404581 1.6179777456894 1.1742520797115 1.069499418302 1.0180665056802 0.99403222313842 1.0285626497386 0.93099228206729 0.95965826244873 0.91281676120276 1.0728364860609 0.94403568354082 0.97209922583843 1.501295779553 1.0458834335395 0.94769414036482 0.82769358545834 0.68505785174443 0.80021730947769 1.2048904072813 1.0982080419836 1.8207242298631 1.3321725996194 1.7968147367503 1.0727763680486 1.3588100988891 1.8142772206706 1.5539135728721 1.2786478580948 1.1779255833982 0.74705538891892 1.4632183248016 1.4093277746101 1.1050646580692 1.5359700677595 1.2778436662564 1.6792711624607 1.5479643131876 1.4988961093426 1.3357395733087 0.87910169665319 1.0704146411814 0.84931425050309 1.6819811427354 0.6503862551282 0.92029548920568 1.2125245718808 1.0835575099039 1.4972920623403 1.4624978224269 1.1391310348149 1.5117931811024 0.99353061341222 0.94963686441851 1.8266529899335 0.74008216459631 0.82663187015858 1.0490533144138 1.0427619979983 1.2014316023762 0.75843822410155 1.6323022607019 1.4412902722692 1.8352160595693 1.1791497233791 0.72044439893622 1.0428321450064 1.4579667706374 1.5183471254228 1.2038269923044 1.4652760772447 1.7874370424634 0.98219003238808 0.80846281653238 0.82898347933439 0.79691344271109 1.8285815938871 0.83163673221716 0.75293511748741 0.80823715725429 0.94479902014732 0.71616306383529 1.457342533286 0.65615029900529 0.78427563519801 1.0769644081555 0.46389257539345 0.65757990252308 1.0714213582876 0.97518475677133 0.77819496068573 1.6394899253912 0.69286497408893 0.72397466936276 0.61296591852253 0.51081908747277 0.5668466372883 1.3863086084171 0.55634666294476 0.58500772279099 0.3118859812238 0.47633960121825 0.97951218107492 0.74511007783405 1.4744994931625 0.69653014039153 0.71241583237769 0.68886290652686 0.64651309853754 0.35624103247519 0.11240438549761 0.69609584313297 0.67843492694259 0.71966669988238 0.66330398767412 0.047248140473875 0.25571573569939 0.56128490678324 1.2984599279385 1.0145489806374 1.6616581334687 0.66926497062866 0.75512962470188 0.69935818634876 1.2630909831625 1.0730409696003 1.0097507294596 0.94243557004663 0.47343387760888 0.57555954712033 0.96869740865745 1.4829514127895 0.5371441373875 0.88653369562504 0.97632495871748 1.2440840453307 0.60831743232979 0.6395842430713 0.89052003335646 0.50518786030289 0.55497846950034 0.29008138081876 0.42611322186213 0.027835665468994 0.27889914354777 0.40397275135167 0.029696530695201 0.36197890081548 0.081353651290255 0.17672560593623 0.50106336087202 -0.14717622873653 0.039486248890549 0.053571213928502 0.51671343788412 0.27484845904796 0.27079349042085 0.23646545858563 0.51624689761748 0.65210592352458 0.063498514436104 0.052696924596007 0.1780836861792 0.60680926344868 0.23118490907263 0.44741342706966 0.61476083922719 0.59659707822303 0.58811260776359 0.61956943635236 0.61239031988475 0.54859511892185 0.52311393621035 0.56908121966454 0.57973857743091 0.64537102210917 0.59277405547594 0.56041136427042 0.61361130918374 0.38709060130867 0.56680532828032 0.57944701345733 0.61509383582683 0.59952108848226 0.58085571605394 0.22494659016722 0.33308852425767 0.34905762827146 0.61646900497579 0.58152679683049 0.29044433888725 0.31465323357431 0.75692510209848 0.78367238623566 0.42515723624619 0.54691026104053 0.64760547885875 0.74819780571243 0.20390357563286 0.55020324827364 0.77660901456688 0.58496139045567 0.76160226137259 0.67698513939882 0.75462543894557 0.71553752928481 0.62023811435472 0.55501355117054 0.67291744825357 0.4599848535587 0.69030128318915 0.561102560714 0.55529181390656 0.62562345716887 0.3686418511598 0.46657855454676 0.061987496562577 0.22799180385074 0.49568153698922 0.52059751864484 0.34491098985727 0.40120471334905 0.061845091448302 0.56460990637309 -0.063887198199959 -0.10148330907614 -0.0098253571118453 0.26662488848125 -0.059426887562515 0.20702701148684 0.00078771383571745 -0.057030668567302 0.44738398880653 -0.067836807757988 0.18099962092395 -0.32417630668499 -0.34151024302468 0.16173658338585 -0.071036692443661 0.1834196014805 0.11058030595366 0.22671311455093 -0.25248527589763 0.42560288178621 