# vtk DataFile Version 3.0
d-2__ created by libgimli-v1.4.0-22-g2d6c0250
ASCII
DATASET UNSTRUCTURED_GRID
POINTS 739 double
35.25	0	0
34.766081542978	-0.82021566092004	0
35.632578047987	-0.72883630452407	0
24.024974223709	-3.3959938323052	0
23.653360812241	-2.7288670633191	0
23.229010511392	-3.3529576731171	0
4.0418655321018	-4.0506862785614	0
3.4460515782386	-4.7439961566826	0
4.2311515920029	-5.0809003825016	0
15.407766344465	-7.3730645449994	0
16.233299169082	-7.2585920105004	0
15.614499752591	-6.6705036155538	0
0.87966150056611	-3.868344094725	0
0.53946997502051	-4.5402672655454	0
1.0423668045247	-4.5416868935558	0
10.044780655634	-1.38528895599	0
9.2449702923403	-0.85837555044783	0
9.345362148561	-1.7444613449413	0
9.4404614270197	-2.4142126442597	0
8.8670364751027	-2.2005241160204	0
8.8981197610435	-2.9065452242835	0
40.643431096227	-1.8007378109998	0
40.90951054121	-2.5500139899776	0
41.411624169268	-1.5999858451814	0
30.395367991702	-1.9693062955434	0
29.554682165597	-1.8859186953224	0
29.759185494429	-2.7694853144209	0
5.1523452594718	-5.0731882456395	0
4.7333838933121	-4.4274311535604	0
4.8293365853565	-6.5416884368369	0
4.6531391287001	-7.357849878802	0
5.3618836946219	-7.2453518540761	0
2.420340802333	-5.9803755969777	0
2.2095578170366	-5.1629239562001	0
1.5749245865607	-5.8280971878667	0
6.4631285840114	-5.7234774575293	0
7.0614370368234	-5.3339000067243	0
6.4310774709665	-5.0305550495624	0
6	-8	0
6.8149088859959	-7.1369339193422	0
6.0380890087879	-7.0593430649453	0
2.337095399571	-2.7024130282098	0
2.4182611852565	-1.7461085668484	0
1.7314028473745	-2.3660256592611	0
4.7120578677277	-5.728342736769	0
4.0027109767498	-6.0857371454819	0
5.6471126438986	-6.5176179037	0
5.8650720782736	-5.3997839601918	0
5.3575291744975	-5.8713437985688	0
8.8206498418204	-7.3549687861435	0
8.4413342175328	-6.6552453659709	0
8.1531633313928	-7.3876617519353	0
5.9380884743294	-5.9807090902451	0
6.340105930545	-6.4315959866684	0
4.0658421990741	-7.0053381340916	0
5.3593802187152	-4.2767652155575	0
5.858312820725	-4.714231643898	0
3.5539747292485	-5.4650356113086	0
3.1722088864894	-6.0889775775066	0
4	-8	0
5	-8	0
4.9041715027695	-3.6404381370114	0
6.3841275467394	-4.4206981320864	0
6.7082817957996	-3.6916407749453	0
5.9717371155479	-4.0622525356292	0
10.455786908479	-7.3899923003538	0
10.069732056581	-6.7108805202894	0
9.5950164365213	-7.3631486063629	0
2.7298127856572	-4.5788385214117	0
2.0726289944547	-4.3946730213117	0
7.1327228036634	-6.1871299893166	0
5.9922272054042	-3.4924814834306	0
4.2186757807963	-3.1085730056651	0
5.5515996961085	-3.721657217286	0
5.5244600938001	-3.1299237043516	0
2.921729566446	-5.3311984568052	0
6.9648131056334	-4.5768127754969	0
7.6649814503624	-4.8682074785256	0
7.7420202437717	-5.6148710814956	0
5.5676567450914	-2.3292148446412	0
4.9222559921608	-2.7486617302843	0
6.1971181697204	-2.8540900672423	0
7.0212731257583	-2.6573891139302	0
4.0890680178231	-0.80500860446348	0
3.2172049700142	-0.97874737870402	0
3.8193790308275	-1.6629755476804	0
8.3416777787407	-5.1833881033199	0
7.5572275114128	-4.102709076165	0
3.5794694184609	-3.3774522548669	0
7.6088637440976	-3.3061553813084	0
8.0396305197243	-2.3832345250595	0
7.2501992898856	-1.8315241352993	0
7.8258608922489	-1.346118462439	0
7.0328259049448	-0.91494393004697	0
6.369261658854	-1.8257400853179	0
4.9672453990647	-2.0402364640941	0
5.4220884530876	-1.389640384905	0
4.5794425818972	-1.4753994016058	0
0	-6	0
0.75115345976489	-6.2921750472139	0
0.77632627405085	-5.2976449958587	0
2.3034188316378	-3.3286511292171	0
1.9431807852442	-3.7381185229599	0
2.5260903249391	-3.8678537932067	0
7.8699182234219	-6.2360358230764	0
7.6542578277896	-6.8451202459774	0
8.2655479110563	-3.2088163092203	0
3.2040934351226	-3.9685105959404	0
0.734375	0	0
0	-1	0
0.61443623639171	-1.1818049446663	0
0	-2	0
0.52853507360799	-2.6508136276114	0
1.0036880328999	-1.9729809919743	0
1.8146822935359	-3.1226852479236	0
1.4514208372378	-3.5701769998337	0
1.5278007240401	-4.8942112229174	0
0	-4	0
3.5512838533278	-2.5599597745499	0
1.4868063674291	-4.1631811125537	0
2.9034746231188	-3.1852042312138	0
2.8721321228156	-2.4183325865144	0
4.3412571586717	-2.2647172445937	0
2	-8	0
2.6659100987264	-6.9662786892768	0
1.8544139966028	-7.1043716111303	0
0.5079131956491	-3.2995937075409	0
1.1307352897668	-2.9800868127229	0
3.4693050880931	-6.6981202008635	0
1.6868535240114	-1.6376438628027	0
3.440232320933	-7.3347847410184	0
3	-8	0
1	-8	0
0.61268418967956	-7.4660603407378	0
0	-8	0
0	-3	0
4.8535502314262	-0.7073385918545	0
3.1733778454903	-1.8751252197409	0
2.9375	0	0
3.671875	0	0
4.40625	0	0
2.4330107061784	-0.73760748326961	0
1.3333015130559	-0.9315959698365	0
1.8766050689234	-0.56293537948883	0
1.948537503014	-1.1293433308992	0
0	0	0
2.203125	0	0
1.46875	0	0
6.1316050836961	-0.78450548287625	0
5.484535700698	-0.57615159438342	0
7.7277917280599	-0.60111054434286	0
8.400860817486	-5.8876225358776	0
9.5630097790906	-2.94368847844	0
5.875	0	0
6.609375	0	0
8.3805420158992	-0.72883907306127	0
8.078125	0	0
5.140625	0	0
7.34375	0	0
1.9753969304143	-6.5108597214121	0
0	-7	0
1.3689252361078	-6.6773065404534	0
1.271866542911	-7.3681658699021	0
0.79843667000352	-6.9610346280904	0
0	-5	0
8.0934491987285	-3.7402798363746	0
8.3526223075714	-4.3862968716516	0
8.8812932222946	-4.8495908353712	0
9.2495369766643	-4.2685648122416	0
7.5241925852712	-7.4735725008744	0
7	-8	0
9.0708714075818	-5.4858233310482	0
10.678386559089	-3.3272598792468	0
10.804571464251	-4.3307964217889	0
11.41891875058	-3.7351133902904	0
8	-8	0
10	-8	0
9	-8	0
9.2512683726635	-6.7158200190867	0
8.5	-8	0
9.6398646977454	-6.0569476299073	0
12	-8	0
11.701190691715	-7.0178795707848	0
11.202571672499	-7.4461441005432	0
8.9599697063497	-6.1597869948541	0
11.233165938823	-5.1597635949138	0
10.502612452147	-5.0816627650991	0
10.624270039711	-5.9297050009808	0
10.875476750227	-6.8176234265893	0
11.297502262295	-6.4093708180867	0
9.4009670005084	-3.4945762481523	0
8.704031409935	-3.6771790743333	0
9.8711091463184	-5.3516531775058	0
9.4076131337331	-4.9197440922233	0
8.6148589807278	-1.5468768747086	0
9.9767463500217	-4.640261707511	0
10.015519359214	-3.8912900484212	0
9.9562334753365	-3.2602198917368	0
11.542293243434	-5.8727156156799	0
11.533831101922	-2.9603017492445	0
12.154184826355	-5.3073953175186	0
12.205039694262	-6.0302968717877	0
12.565653848073	-5.7317611342705	0
12.283650708161	-3.5816924475913	0
10.110157211253	-2.637865210986	0
9.8587877567004	-2.0420494257341	0
10.28125	0	0
9.546875	0	0
9.9649662999966	-0.60627195995189	0
12.70465236974	-4.5100365304716	0
11.770287658143	-4.440650932946	0
11.617832441555	-2.0064323806666	0
10.859498247607	-2.4328581497823	0
8.8125	0	0
10.705622488639	-0.78896034843682	0
15.06553672398	-6.276028353677	0
15.680974072729	-5.7849759373399	0
14.632715739621	-5.6685994613595	0
12.365976924043	-6.6743633558583	0
11.813005918224	-6.4031309146134	0
14.38647420984	-4.8199859379677	0
14.194804380357	-4.0595150993604	0
13.597094220068	-4.6359830373028	0
12.293397764589	-2.6540853557846	0
13.34178425423	-3.6968226496998	0
10.821707318997	-1.6462338807521	0
10.342661210516	-2.0275986905901	0
14.010238366691	-2.1919402828937	0
13.55729974309	-2.7484698825173	0
14.240137580401	-2.6619477668096	0
12.917051988236	-2.4369691973858	0
12.879625457607	-3.0259697333822	0
15.191535490918	-4.924313627692	0
12.484375	0	0
12.086565658987	-0.57709382902849	0
12.758125436677	-1.01796672845	0
11.96236122703	-1.2284582090393	0
11.015625	0	0
11.318264939988	-1.2611066042886	0
11.475466841094	-0.64060339861446	0
12.852009680744	-6.1773420833061	0
13.072225890854	-5.405038899661	0
11.75	0	0
13.886294673494	-5.3329592763524	0
13.758879284747	-6.1456668635604	0
13.226726949397	-7.0485511502546	0
12.486647683567	-1.8707614222818	0
16.082690019272	-4.8838028544159	0
15.588249595521	-4.0858229696258	0
13.21875	0	0
13.352540526941	-0.46325628238061	0
12.45258115371	-7.3503371603357	0
13	-8	0
14.832628878105	-4.3011594131318	0
14.166838931635	-3.2806882428375	0
14.837679056872	-2.8631337404129	0
14.652463129072	-2.1856472856178	0
13.572273204992	-1.0938488821995	0
14.257450469287	-1.4834733391051	0
14.136499103215	-0.64728730968009	0
11	-8	0
14.906932583358	-6.8595391989725	0
14.50530276564	-6.3880454815302	0
14.180657895825	-6.9822987629868	0
14	-8	0
13.361788428331	-1.8441238959815	0
13.953125	0	0
14.860489128315	-3.6273128087287	0
15.023516208248	-0.78525331169581	0
14.6875	0	0
16.433738536114	-4.1591436718784	0
16.8292022244	-4.7493086727781	0
16.492671238228	-2.7570829143144	0
15.55378227869	-2.2395328783323	0
15.583809923027	-3.1816603901125	0
16.41147786877	-1.8589837305121	0
17.312602990133	-1.9876176433335	0
15.06680452402	-1.5886399739304	0
15.85107129564	-1.2339717480057	0
16.195600797192	-3.5412022318805	0
17.114058842164	-4.1917737383704	0
16.896094149161	-3.5575267671562	0
16.811448977771	-5.5938104794507	0
17.491952228104	-2.9614820164517	0
16.15625	0	0
15.750627365419	-0.51721425022099	0
16.30045814652	-0.5635762108592	0
15.421875	0	0
15	-8	0
16	-8	0
22.756862915706	-1.8570017610221	0
22.344534171134	-2.5456024048519	0
22.969878419642	-2.6472927337462	0
20.044005905968	-2.534398285706	0
19.517693861884	-1.7376224821256	0
19.295726866527	-2.3913520544351	0
16.40676546016	-6.4555129050585	0
17.018238820229	-7.033983679535	0
17.634670927242	-3.7791145708047	0
18.858048753151	-0.56694169011229	0
19.09375	0	0
18.359375	0	0
16.853086776378	-1.0597567726391	0
18.167541581048	-2.4176717555584	0
17.627135722909	-1.2162305966125	0
16.890625	0	0
18.803920155665	-2.6260600115479	0
18.805716510343	-2.0028710992174	0
17.596801646645	-0.52497032841282	0
18.243386992724	-0.86293430039319	0
18.167765680984	-1.6205595504649	0
18.884682322029	-1.2506979597346	0
19.738008291269	-0.72929214829284	0
17.625	0	0
17.30462052823	-4.6267683525864	0
20.055946740925	-4.2871034324514	0
19.251021539757	-4.0538766602334	0
19.724539057624	-4.9713633198339	0
14.698061916436	-7.4441215935864	0
17.612789726548	-7.4211394446211	0
16.96875	-8	0
17.9375	-8	0
[...]
CELL_DATA 1349
SCALARS Coverage double 1
LOOKUP_TABLE default
1.4266880139259 0.66352347421831 -0.2981946974797 0.17698286791736 -0.38111029147732 1.0752450878008 0.75673960841261 0.70531342625594 0.82983206623909 -0.35749984868929 0.19047832783713 -0.30753877903977 -1.2753105444291 -0.50113808045234 0.26754857359635 0.52537121999027 -0.26955137815315 0.1656617312509 -0.40803416144032 0.056672128231943 -0.15180826916551 0.026576183694108 -0.046446098971517 -0.25446175492031 -0.38697551154214 -0.32370798209176 -0.67390112674171 0.35194646632306 -0.18759552181566 0.24041326620067 -0.35749674618386 0.087775105814241 -0.13157709401404 -0.060957827820014 -0.64904570552135 0.16011337467477 0.088043662131066 -0.33251192264028 0.20935881937596 0.086716153519502 0.36873863305347 0.087640457053265 -0.0010156616759114 -0.99786975254774 -0.49104790488816 -0.43940641736893 0.30432595479116 0.21929634437873 0.2934175489853 -0.13545398324568 0.27776704473337 0.18433296825352 -0.2321150856527 0.16025459543796 0.41744131588962 -0.72384465717699 -0.40954591800982 0.030599243031945 -0.45643660630154 -0.12870448291691 -0.22840335043923 0.19406613002576 -0.12236758672372 0.4344978124646 0.3044346008866 0.39308279870314 -0.25641196629311 -0.47106268770294 0.48028818014907 0.44587052290178 0.86378855236162 0.45968935640743 -0.18415303640858 -0.087865582217978 -0.20664171232099 0.24605345740727 0.3552937153386 -0.7500817676296 0.63620532604945 0.91663115051284 0.44384623221492 0.4442222944155 0.49979196315827 0.43788499649429 0.47310643790926 0.78194126364816 -0.99709085199028 -0.32177095928609 -0.40159083544835 0.73271403269326 0.10052978747209 -0.50219992572212 0.79185252317946 0.96718802280273 0.32747406042822 -0.40065549446966 -0.47698171548142 -1.0087043712283 -0.33152780327005 0.46816494863093 -0.69621540283319 -0.96419952526625 0.45135141496385 0.78426781399224 0.50467507268061 0.50619571827068 0.73855793010557 0.46349196692239 0.090551539457408 -0.71847473426226 0.026475822858506 -0.086618036795285 -0.32258234083029 -0.081634307085497 -0.64656712149456 0.47735790390602 -0.74472804173377 0.48764352020706 -0.37374489856602 -1.3823414893738 0.070523939936732 -0.83787891386379 -0.70462527530795 0.56669017702089 0.02554223914091 0.023531549460943 -0.73394378342117 0.65293380756387 -0.089956836551896 -0.43859662135192 -1.0595926595456 -0.29692297725967 -0.43330054268739 -0.35062006103701 -0.75926955432663 -0.64454638413386 0.50398653546444 0.52597396051739 0.6005181259789 -0.025607551735458 -0.94349973621672 -0.0043512957875201 -0.035293789330761 0.83722479363587 0.62317071454459 0.57812535400981 0.4636096401019 0.22229707851431 0.58305814934708 0.94750634788052 0.45363066061564 1.4291023372183 1.2874172888233 0.83950997542686 0.64234500390779 0.72775201725056 0.98961201267614 0.74307921274733 0.84773118488991 1.0355845147234 0.59894781607189 0.95461635126116 1.113746160102 0.78858274766525 1.4660574998493 0.98208335092909 1.1745220942486 1.1377130676549 1.0567169296061 0.88938591842522 1.018403947457 0.62493855795872 1.167387496855 -0.33078655200937 0.80540715405859 1.5044016605183 1.3663734629402 1.3650576067901 0.062142256139919 0.061895736343234 0.19741270487289 0.32187491123183 0.81180999152147 1.0016166855992 0.83243415397921 1.3286383897523 1.0991400313273 0.8898772554344 1.7410198213936 1.5563967829518 0.84800086760707 1.3054226434908 1.3626974361363 1.4051501023803 -0.66877387458763 -0.47399249681708 -1.0058274194665 -1.2531990497302 -0.88461304967042 -0.27295618228309 -0.078002706453968 -1.1332619318922 -0.65313455957051 -1.0384299901351 -1.0145245951972 -0.9897346838745 -0.5720869458594 -1.3739449608018 -0.65388628577168 -1.2474106414761 -0.36353827821484 -0.41046171041929 0.77199374864212 -1.1214761064896 0.13517767371086 0.74500205236778 -0.63392909719135 0.47114589137724 0.44291947671399 0.65767017707655 0.49041184621262 0.58085893347133 -0.97313948494817 0.65922333948262 0.54050282359759 0.69368326191919 0.28614231173297 0.29871848637939 -0.14801212800178 0.28237287033657 -0.57288516011893 0.16706643015471 -0.52959991256264 -0.075104880775503 -0.27574026466395 0.014212382262928 0.16926835300791 0.0757907373542 -0.55189613252952 0.040999377896292 0.493931181529 0.32969448834395 -0.50851811414003 0.21741842433612 0.2159661469698 0.65429260404152 0.19107924908206 0.32210831336124 0.4897693687792 0.25556150401606 0.53204419546352 -0.033093876571444 -0.36427613490759 0.042925859861331 -0.38497804400707 0.22442263085141 -0.45935734728366 -0.0094780067252155 -0.46249796396777 0.42700124728593 -0.35504706527431 -0.24317445452941 0.76110369945344 -0.36719003422011 -0.056613562622395 0.58587362732046 0.67135160529102 0.61629476635262 0.78470043265963 0.27115166811858 0.73700462371282 0.63659788763953 0.75159151129314 0.17131465326747 0.58118985672506 -0.33845302439871 0.33530662971231 -0.44155778674461 -0.32675936154936 0.030898352321982 0.60223716201735 -0.67135598082994 -0.50624982739534 0.50525165025516 0.73514672773156 0.23430084301772 1.2462906003145 0.61096706938331 0.72659794682739 0.22012849856668 0.62586591547757 0.11343666419187 0.36854792205786 0.0050477184789069 -0.030232120808638 -0.12225441059625 -0.062420686885176 -0.19545517782114 0.58122002084188 0.057838152507744 0.64016772358925 0.69698746622948 0.79148948038724 0.78939271509378 0.79071797175651 1.499808389024 1.7380288350048 0.68175551919682 0.70186701549904 1.1502878222154 1.4751859215396 1.0155494863573 1.0414689091495 0.81405495386554 1.8013239896131 1.4753482335178 0.97371655323278 1.2318088527996 0.6292737125463 1.4556914169525 -0.5430371533293 -0.5651289242776 -0.15454373024841 0.43166289420484 0.21805642198271 0.081240449254055 -0.69912567364895 -0.39918815007657 -0.5523576134953 -0.34535400360747 -0.041432663675324 0.084081749320415 -0.069490102135932 0.56668260076567 0.53464797324072 0.372341757548 0.82467468196636 0.54795220001152 0.67979090996989 0.41462479902186 0.81892558284651 0.74268160723838 0.87196438327984 0.69820263567591 0.7125460184049 0.74402233734217 0.53431677093269 0.71421071494696 0.83299949991953 1.5980631007109 0.83545011404819 1.3159085883158 1.7934189291218 0.73854350950197 1.1770436364591 1.0134853306829 0.80427065937434 0.94004688089652 0.82426653332482 0.7671856725807 0.87776493450696 0.78269187104814 1.0177925620437 1.2900949241044 1.6067211464037 1.320891577266 1.4179851072709 -0.010929370008331 1.4310102558755 0.23585698609307 0.10199913707959 0.77413667691537 0.19366364945806 1.511467771567 -0.015949111053661 0.57569049410779 0.54425901672622 0.6507343648178 0.3414810704618 0.65464924100174 0.040234730962261 1.1043575742836 0.65275658563078 0.39066755119407 1.4829375929859 0.26504616616004 0.14659973321392 0.98763716211689 0.76783194515499 0.27224378480898 0.6412988647161 0.69526732091502 1.0860550684395 0.0067761900291596 -0.355103816276 0.12264980790016 0.13838228680845 0.012481789365788 0.21396933332092 -0.04346110102708 0.001754391605585 -0.1446251356699 -0.049562348808631 0.24472416499974 0.084066174303103 -0.0081264427290349 0.11627215983965 0.27734435494001 0.29452238347469 0.0048569685507722 1.7637354748955 1.1298222985918 0.86410576425094 1.1796868896767 1.3513626231592 1.3584078525017 0.99975661358268 1.0508301859876 1.6396747681189 0.85095382375909 0.86266835677843 0.67935372073419 0.81487898919948 0.64039358549541 0.60981626347604 0.65879043084544 1.9878878208661 0.62043935025006 1.6146598926995 0.74140198076022 0.69474337416295 0.61532401697219 0.79356942815136 0.10535735887067 0.48633585335328 0.56732109268335 0.76633266576494 0.83028975822651 0.72773514525135 -0.10257334491024 0.20184049769862 -0.11355302620225 0.32257627865752 1.1949774960344 0.87155989051098 0.65940444784454 0.72826438470457 0.68566261761959 1.0819704622867 0.89974323200646 0.79849879809401 0.95155719198583 1.1358399588417 0.68143238990578 0.59903162593923 0.6370759955753 0.67370059191582 0.74303707762851 0.73321912342485 0.50548818145882 0.53564400355843 0.48288693418848 0.6171769693709 0.39430391484121 1.6442783777088 0.69865090418856 0.86869782309571 0.85066025225361 0.9721295930658 1.5506027556437 1.0007984402978 1.7649953912141 1.6544599290508 0.34950699125653 1.0293780967872 1.3657906713982 -0.031735517986496 1.1002233980923 0.61176114883034 0.77701415269692 0.8376440315721 0.37248047161237 0.55005855382915 1.8859971356599 0.13838205539086 1.4171300971311 1.0042573411731 0.5029531801271 0.50470171058686 0.37972406373466 1.8288461565963 0.82181164278131 1.002743412029 0.78598525844758 1.0529281604316 1.0323480766593 1.8869659277827 0.81080598276637 1.2934357594732 1.2559266588687 1.4940577337869 1.6131583950734 1.3681063298036 1.0266262955979 1.6196806386401 1.0812394717417 0.95423738095473 1.5914852208625 1.8349791669471 1.2258887504843 0.56101349827882 1.5906692379091 0.75920772291764 0.12717393555828 0.030956594827702 0.020421653872827 -0.013753963797792 0.17050120460603 0.39236713189302 0.24668544737906 0.24878787238285 0.75190417717672 0.13680257269089 0.31752733454129 0.96354448146603 0.31841176844626 0.18032304988345 -0.057516574089839 0.33752653843265 0.038779317498475 0.41534043736291 -0.072120573751846 0.10106812544031 0.10761572983502 -0.062997496283714 -0.18440102726753 0.34313324410934 -0.0064576439352548 0.47043051879537 0.19290306195333 0.35737469261385 0.21921227480691 -0.1535459963185 0.030795850965375 0.66605782802616 0.3293996094778 0.02059045481631 1.6909566396095 0.6035312122598 0.10322774906512 -0.0013945654525098 0.28906792651334 -0.2501379867442 0.25941631069592 -0.012537307318346 0.23877205118543 -0.052946257282399 0.28190395708309 0.15141829706686 -0.24123436432702 -0.23340586483853 -0.15435357395508 0.19218208083127 0.61089890272506 0.1761421757932 0.30641172599975 -0.27647553922014 0.24245479372399 0.5102978404729 -0.025320037781656 0.017146454689167 -0.1537638998418 1.0628136196904 0.18259094066335 0.33398261592851 -0.010803925869173 0.77796567828151 0.78639246743036 0.39272829038239 0.16967483132786 -0.19656553920166 0.55793467727068 0.72753700820772 0.75000099364966 0.61709617339004 0.8142320944618 0.84177605800331 -0.14708195587336 1.1352524272948 0.69161609623195 0.69814070960161 0.8591819412539 0.67945232535545 0.50032728787356 0.70850054101791 0.55942135591336 0.52983525579335 0.5973649339432 0.65974788330093 0.38180497840557 0.55059585426987 -0.035354709164832 0.49872739835666 0.04950189059324 0.034296434614723 0.42200385024302 0.093484000819097 0.56526971125394 0.57244132434886 0.30498920119473 0.19110026462258 0.21360635370689 0.37991611885309 0.0035266386531439 0.39152151815675 1.1714478415212 1.5501303390651 1.1736165375532 1.0703529978335 1.0258535272861 0.91972543738513 1.8776877206129 0.87092418172006 0.8049726187912 0.67067720782774 0.94980991867103 0.85260265035254 1.7324254733884 0.69169820913511 -0.25612483436904 0.15767439743091 0.11867959125805 -0.31589135884643 -0.21656057376548 -0.40023555534543 -0.2974313271397 -0.25425415376468 0.22021361540577 -0.079050835825279 -0.19626947895083 -0.36968629823446 -0.35295405999314 0.21811696887595 -0.015284168189324 -0.22287415756743 -0.34241046932598 0.017372057353529 -0.33969592803244 -0.44188431049649 0.80892004767899 0.58730129372464 0.64955654019698 0.734258515485 0.83139080636166 -0.35752495642828 0.77410114540171 0.83981205929553 0.55494522651033 0.83499577262678 0.85953419919766 0.34352953717032 0.10847769139756 0.79487791572027 0.83284543589511 -0.0010081343051954 -0.14298767791719 0.67565133047761 0.72959824611506 -0.22493881251566 0.27738076361667 -0.34503729135046 0.26895139414687 0.7533526185983 1.5889278260911 0.73227415149347 0.8652482264221 -0.1245106150055 0.68263487848949 0.84284879102198 -0.12292212355872 1.6416851782089 0.9247024475114 0.88495767851175 0.97258886003055 1.3064786220693 1.8445731735195 1.0150332412811 1.6206978455796 1.0733005095712 1.0824925563929 -0.15216610487049 1.5867007441654 1.1201299808003 1.4648313385283 0.73825957157825 0.22280006363675 -0.39860705331099 0.20030587199926 -0.47883996993902 0.13635649711349 0.10013875784199 -0.38078081863288 0.71552881119966 0.87526281640567 0.72816959977797 0.57177681411125 0.047195101405978 0.7861677080869 0.79780481852674 -0.3898218419604 -0.19450473206185 0.079065102465284 0.17940891886937 1.3264342103964 0.14871058015575 -0.40836728101438 0.65923076471645 -0.38253263092279 0.0053415650119105 0.13343102140903 -0.23161888458248 -0.13724432217697 -0.24240575242968 -0.36260037574142 0.14759510689701 -0.30100947992816 0.74729441433809 -0.11500463698825 0.17010258703067 0.31476371195962 -0.32963627554284 -0.4028342363857 0.78424255465552 0.68838280489098 -0.35193573393194 -0.38449205644247 0.57121200658539 0.55016341641005 -0.39149088649851 -0.28725732645065 -0.21095904841316 0.079434231710429 0.077224542441057 -0.18243076490085 0.70237274454146 0.8617535705853 -0.32278248084119 -0.22111703459996 0.97795583650071 0.68768571474888 -0.078799826723136 0.33100516514734 0.68185307344646 0.76436342122825 0.73615396406772 -0.23867606584209 0.7053210782395 0.68645385268815 0.79960872038727 0.59937445451885 0.31245590853412 0.95504436046064 1.0864592001625 0.67834049459217 1.6330163896089 0.89085232777153 0.78729252150858 0.79088803498557 0.56840835095644 0.70661291607326 0.82421945755917 -0.076539419790716 0.11032225698531 0.91572640935673 0.48288263208976 0.5332020456291 0.803056301963 0.72763494037184 1.7446157679302 1.020234003384 0.75153512943906 0.89566428020664 1.1190087010373 1.8237777099986 1.0196764039326 0.93011970779841 1.4136183243867 1.6851834400501 0.84531704299485 0.78727980320827 0.86991403546406 0.73710544803513 0.94822646130235 0.82560595319903 1.0982038029565 1.6065206821611 1.111657713645 1.4933300979953 1.3985419897749 0.82598826557875 1.0087031640678 1.2508813761102 0.62066237578255 1.5213548287702 0.97784132727496 1.8799695883996 0.32682479141619 0.021900260694254 0.20453081040707 0.058374463721392 0.86783327364514 0.76390198805632 0.48065869116779 0.11460077417217 0.45541149751624 0.49441355698282 0.048675640449276 -0.41410018830436 -0.48043218763147 -0.22808817897061 0.09812620949174 -0.05032099146173 0.1828229487378 0.37581591085847 0.024649168921713 -0.016839908872844 -0.15695482579001 -0.27793478410588 0.080880002305247 -0.035637392800101 0.041301258675917 0.20910555161865 0.26010082794618 0.48233065797632 0.30402992319853 -0.15556442560711 0.3734624822079 0.35340805849985 -0.091810392729607 0.025172923362456 -0.16999886977472 -0.064224594888951 -0.042074191488232 0.24887514859891 0.0041597025746793 0.71250615419093 0.51231676467398 0.71471252517709 0.34305833433611 0.02906705505663 -0.030938798649334 0.961392171617 0.43902506518273 0.72829620615598 0.52777348137652 0.75241069094352 0.17844498096683 1.4909341787157 -0.53426323746873 -0.45255684905765 0.62088095068209 0.56866588503366 0.62353585736923 0.56941588196865 0.6504638492209 0.25417021598207 0.59046006399778 0.56145576496861 0.67723876633492 1.13548393665 0.60278761297835 0.1021022025295 0.66485146400603 0.89527087580741 0.75220765930043 0.29480095320178 0.5870098547578 1.0540956015176 1.0227817424459 -0.44798972871436 0.85528166037626 0.77118183037758 1.216747990957 -0.50947409062179 0.905858037816 1.2413429639498 0.6744421445964 0.82732071599881 1.1252829964918 0.76840889182832 0.86097689747592 0.67526956999348 0.22446682548232 -0.20704047419394 0.66572186344505 -0.023752581148194 -0.47948179480408 -0.52421076812492 0.94876285396486 1.040707620297 0.91004510618077 0.81268454248258 0.94547469257791 1.0391641306578 0.90740245686567 0.41426292923388 0.34338770225932 0.94756082494069 1.0508948621863 0.97622024370631 0.79000704410161 0.46899358044315 -0.44478046497468 -0.33464465434443 0.077034937388451 0.19891154300801 0.56014588118677 0.31483249026098 0.43421250308871 1.587275098068 2.0219912656882 1.9438222145252 1.3187728992318 1.1880159623056 1.1755961245857 0.92232052983039 1.0755795204541 1.6242897040473 1.1608837643193 1.0642227276867 1.0089676296056 0.98580542522357 1.0197205423237 0.91844140634679 0.95028505627042 0.88933853249066 1.0460159757399 0.92442650553029 0.94137814258046 1.4972677675815 1.0340816285539 0.93384559339576 0.82481465465422 0.71071005171454 0.79892287075763 1.1880222738834 1.0823939624828 1.8305376292929 1.3492655375172 1.8079442983034 1.0486264126104 1.3460509762942 1.8169946043721 1.5587000610808 1.2737082513989 1.146672647558 0.76258003378526 1.448584240252 1.4140702806801 1.0966271367335 1.5496619146558 1.259240552946 1.6875248484002 1.5544055662424 1.5091849510268 1.329636793914 0.85813914089755 1.0420210966917 0.82368220171078 1.6846585170994 0.61705629204826 0.89953141336819 1.2186562988742 1.0670971669542 1.5045386210585 1.4600635062811 1.1337088105157 1.5061839253507 0.99051584434391 0.94411529228959 1.8261888663911 0.74015474733462 0.82086439608792 1.051197382894 1.0482567676662 1.1985696265068 0.75876528306755 1.6257950917782 1.4350299446492 1.8312238436372 1.1825341014627 0.71893843000705 1.0326383823048 1.4474853460451 1.5127948929943 1.2098353286583 1.4675763681808 1.7876434858283 0.96755124415769 0.79474746560116 0.83467315869253 0.75728213500048 1.8259458745189 0.82491099182451 0.75796417407427 0.80434104095171 0.94282830867371 0.69140327465816 1.4553929415402 0.63497530510599 0.78416567281133 1.070434599472 0.47222776743454 0.65634812743081 1.0639746974262 0.97001650219295 0.7699052967477 1.6338365725044 0.66503281047631 0.70111359994651 0.61607992450767 0.51120962957182 0.57604495832179 1.3740390407664 0.52821703274781 0.57733619840754 0.27007082187102 0.45921242562386 0.98299048167234 0.74666266621203 1.4740141547577 0.68525385789376 0.71393674376958 0.72351454187714 0.76725297043709 0.38293646723737 0.10354344531149 0.67044582556777 0.66967903879049 0.68960128228979 0.64870022569823 0.0069003064966237 0.23698570017859 0.56741484017915 1.3026285104155 1.0111255042781 1.6589053645816 0.66863088549768 0.74989721554533 0.69612477670563 1.2646107988079 1.0669421550521 1.0090477028704 0.93671119458556 0.47534256266642 0.5793747336016 0.96338224802687 1.4830505529752 0.54381765571415 0.88183154937567 0.97614866512781 1.2454276043317 0.60794615249448 0.63514192699018 0.89240991032707 0.49541736015938 0.55462451110979 0.26317643588451 0.47463933861813 -0.033225296268531 0.29497289518979 0.34042045114107 -0.011605350335177 0.32367352591837 0.080893878467429 0.16919018702196 0.53385461535766 -0.1970203010016 -0.0024734658611223 0.011042536618109 0.52661735797536 0.24871356234373 0.27197918387123 0.20544214135367 0.51115621581441 0.64140146346846 0.020333666305793 0.0050915924427961 0.14371510767159 0.58570711014114 0.18972826316558 0.43444162674048 0.59208693764501 0.60648353386677 0.58519436614448 0.63121674580866 0.60003168936128 0.55001076577867 0.5205214678099 0.58180629105202 0.57731101405902 0.63618371352077 0.589224020593 0.55289290109807 0.58810081222174 0.35758730453636 0.5610486328064 0.58251971424172 0.59469538222698 0.59393759517771 0.56205337861455 0.20253541390099 0.29366265249267 0.30975767212706 0.61087961994254 0.58320544587322 0.24471859806263 0.27921515997454 0.75943315664125 0.78284102710011 0.40025666194911 0.53113750570349 0.64662411444847 0.75143246348985 0.22327987726841 0.53767416037495 0.77868972978914 0.57568187682404 0.76625341545385 0.66157764703941 0.75956252960486 0.71806544638951 0.60119205725689 0.53934409898339 0.64863787852758 0.46655197940106 0.6864455882998 0.54394930139964 0.55874213274023 0.61581957736025 0.40353445488431 0.50179110326239 0.048909924059237 0.24522785397999 0.53402365347878 0.5284098391886 0.34797245618191 0.42058820360167 0.015555750139027 0.58972197636869 -0.11852007223142 -0.14899473297506 -0.058129820571847 0.28467851291647 -0.054022430690627 0.19525920426585 -0.048699410750894 -0.084746430145005 0.45384505247413 -0.1008849000723 0.19827215601308 -0.33851281041257 -0.35101337212864 0.15138368416837 -0.065245635156541 0.18779413356827 0.12872027783671 0.21044323878999 -0.25892151717792 0.43449285024364 