# vtk DataFile Version 3.0
d-2__ created by libgimli-v1.4.0-22-g2d6c0250
ASCII
DATASET UNSTRUCTURED_GRID
POINTS 739 double
35.25	0	0
34.766081542978	-0.82021566092004	0
35.632578047987	-0.72883630452407	0
24.024974223709	-3.3959938323052	0
23.653360812241	-2.7288670633191	0
23.229010511392	-3.3529576731171	0
4.0418655321018	-4.0506862785614	0
3.4460515782386	-4.7439961566826	0
4.2311515920029	-5.0809003825016	0
15.407766344465	-7.3730645449994	0
16.233299169082	-7.2585920105004	0
15.614499752591	-6.6705036155538	0
0.87966150056611	-3.868344094725	0
0.53946997502051	-4.5402672655454	0
1.0423668045247	-4.5416868935558	0
10.044780655634	-1.38528895599	0
9.2449702923403	-0.85837555044783	0
9.345362148561	-1.7444613449413	0
9.4404614270197	-2.4142126442597	0
8.8670364751027	-2.2005241160204	0
8.8981197610435	-2.9065452242835	0
40.643431096227	-1.8007378109998	0
40.90951054121	-2.5500139899776	0
41.411624169268	-1.5999858451814	0
30.395367991702	-1.9693062955434	0
29.554682165597	-1.8859186953224	0
29.759185494429	-2.7694853144209	0
5.1523452594718	-5.0731882456395	0
4.7333838933121	-4.4274311535604	0
4.8293365853565	-6.5416884368369	0
4.6531391287001	-7.357849878802	0
5.3618836946219	-7.2453518540761	0
2.420340802333	-5.9803755969777	0
2.2095578170366	-5.1629239562001	0
1.5749245865607	-5.8280971878667	0
6.4631285840114	-5.7234774575293	0
7.0614370368234	-5.3339000067243	0
6.4310774709665	-5.0305550495624	0
6	-8	0
6.8149088859959	-7.1369339193422	0
6.0380890087879	-7.0593430649453	0
2.337095399571	-2.7024130282098	0
2.4182611852565	-1.7461085668484	0
1.7314028473745	-2.3660256592611	0
4.7120578677277	-5.728342736769	0
4.0027109767498	-6.0857371454819	0
5.6471126438986	-6.5176179037	0
5.8650720782736	-5.3997839601918	0
5.3575291744975	-5.8713437985688	0
8.8206498418204	-7.3549687861435	0
8.4413342175328	-6.6552453659709	0
8.1531633313928	-7.3876617519353	0
5.9380884743294	-5.9807090902451	0
6.340105930545	-6.4315959866684	0
4.0658421990741	-7.0053381340916	0
5.3593802187152	-4.2767652155575	0
5.858312820725	-4.714231643898	0
3.5539747292485	-5.4650356113086	0
3.1722088864894	-6.0889775775066	0
4	-8	0
5	-8	0
4.9041715027695	-3.6404381370114	0
6.3841275467394	-4.4206981320864	0
6.7082817957996	-3.6916407749453	0
5.9717371155479	-4.0622525356292	0
10.455786908479	-7.3899923003538	0
10.069732056581	-6.7108805202894	0
9.5950164365213	-7.3631486063629	0
2.7298127856572	-4.5788385214117	0
2.0726289944547	-4.3946730213117	0
7.1327228036634	-6.1871299893166	0
5.9922272054042	-3.4924814834306	0
4.2186757807963	-3.1085730056651	0
5.5515996961085	-3.721657217286	0
5.5244600938001	-3.1299237043516	0
2.921729566446	-5.3311984568052	0
6.9648131056334	-4.5768127754969	0
7.6649814503624	-4.8682074785256	0
7.7420202437717	-5.6148710814956	0
5.5676567450914	-2.3292148446412	0
4.9222559921608	-2.7486617302843	0
6.1971181697204	-2.8540900672423	0
7.0212731257583	-2.6573891139302	0
4.0890680178231	-0.80500860446348	0
3.2172049700142	-0.97874737870402	0
3.8193790308275	-1.6629755476804	0
8.3416777787407	-5.1833881033199	0
7.5572275114128	-4.102709076165	0
3.5794694184609	-3.3774522548669	0
7.6088637440976	-3.3061553813084	0
8.0396305197243	-2.3832345250595	0
7.2501992898856	-1.8315241352993	0
7.8258608922489	-1.346118462439	0
7.0328259049448	-0.91494393004697	0
6.369261658854	-1.8257400853179	0
4.9672453990647	-2.0402364640941	0
5.4220884530876	-1.389640384905	0
4.5794425818972	-1.4753994016058	0
0	-6	0
0.75115345976489	-6.2921750472139	0
0.77632627405085	-5.2976449958587	0
2.3034188316378	-3.3286511292171	0
1.9431807852442	-3.7381185229599	0
2.5260903249391	-3.8678537932067	0
7.8699182234219	-6.2360358230764	0
7.6542578277896	-6.8451202459774	0
8.2655479110563	-3.2088163092203	0
3.2040934351226	-3.9685105959404	0
0.734375	0	0
0	-1	0
0.61443623639171	-1.1818049446663	0
0	-2	0
0.52853507360799	-2.6508136276114	0
1.0036880328999	-1.9729809919743	0
1.8146822935359	-3.1226852479236	0
1.4514208372378	-3.5701769998337	0
1.5278007240401	-4.8942112229174	0
0	-4	0
3.5512838533278	-2.5599597745499	0
1.4868063674291	-4.1631811125537	0
2.9034746231188	-3.1852042312138	0
2.8721321228156	-2.4183325865144	0
4.3412571586717	-2.2647172445937	0
2	-8	0
2.6659100987264	-6.9662786892768	0
1.8544139966028	-7.1043716111303	0
0.5079131956491	-3.2995937075409	0
1.1307352897668	-2.9800868127229	0
3.4693050880931	-6.6981202008635	0
1.6868535240114	-1.6376438628027	0
3.440232320933	-7.3347847410184	0
3	-8	0
1	-8	0
0.61268418967956	-7.4660603407378	0
0	-8	0
0	-3	0
4.8535502314262	-0.7073385918545	0
3.1733778454903	-1.8751252197409	0
2.9375	0	0
3.671875	0	0
4.40625	0	0
2.4330107061784	-0.73760748326961	0
1.3333015130559	-0.9315959698365	0
1.8766050689234	-0.56293537948883	0
1.948537503014	-1.1293433308992	0
0	0	0
2.203125	0	0
1.46875	0	0
6.1316050836961	-0.78450548287625	0
5.484535700698	-0.57615159438342	0
7.7277917280599	-0.60111054434286	0
8.400860817486	-5.8876225358776	0
9.5630097790906	-2.94368847844	0
5.875	0	0
6.609375	0	0
8.3805420158992	-0.72883907306127	0
8.078125	0	0
5.140625	0	0
7.34375	0	0
1.9753969304143	-6.5108597214121	0
0	-7	0
1.3689252361078	-6.6773065404534	0
1.271866542911	-7.3681658699021	0
0.79843667000352	-6.9610346280904	0
0	-5	0
8.0934491987285	-3.7402798363746	0
8.3526223075714	-4.3862968716516	0
8.8812932222946	-4.8495908353712	0
9.2495369766643	-4.2685648122416	0
7.5241925852712	-7.4735725008744	0
7	-8	0
9.0708714075818	-5.4858233310482	0
10.678386559089	-3.3272598792468	0
10.804571464251	-4.3307964217889	0
11.41891875058	-3.7351133902904	0
8	-8	0
10	-8	0
9	-8	0
9.2512683726635	-6.7158200190867	0
8.5	-8	0
9.6398646977454	-6.0569476299073	0
12	-8	0
11.701190691715	-7.0178795707848	0
11.202571672499	-7.4461441005432	0
8.9599697063497	-6.1597869948541	0
11.233165938823	-5.1597635949138	0
10.502612452147	-5.0816627650991	0
10.624270039711	-5.9297050009808	0
10.875476750227	-6.8176234265893	0
11.297502262295	-6.4093708180867	0
9.4009670005084	-3.4945762481523	0
8.704031409935	-3.6771790743333	0
9.8711091463184	-5.3516531775058	0
9.4076131337331	-4.9197440922233	0
8.6148589807278	-1.5468768747086	0
9.9767463500217	-4.640261707511	0
10.015519359214	-3.8912900484212	0
9.9562334753365	-3.2602198917368	0
11.542293243434	-5.8727156156799	0
11.533831101922	-2.9603017492445	0
12.154184826355	-5.3073953175186	0
12.205039694262	-6.0302968717877	0
12.565653848073	-5.7317611342705	0
12.283650708161	-3.5816924475913	0
10.110157211253	-2.637865210986	0
9.8587877567004	-2.0420494257341	0
10.28125	0	0
9.546875	0	0
9.9649662999966	-0.60627195995189	0
12.70465236974	-4.5100365304716	0
11.770287658143	-4.440650932946	0
11.617832441555	-2.0064323806666	0
10.859498247607	-2.4328581497823	0
8.8125	0	0
10.705622488639	-0.78896034843682	0
15.06553672398	-6.276028353677	0
15.680974072729	-5.7849759373399	0
14.632715739621	-5.6685994613595	0
12.365976924043	-6.6743633558583	0
11.813005918224	-6.4031309146134	0
14.38647420984	-4.8199859379677	0
14.194804380357	-4.0595150993604	0
13.597094220068	-4.6359830373028	0
12.293397764589	-2.6540853557846	0
13.34178425423	-3.6968226496998	0
10.821707318997	-1.6462338807521	0
10.342661210516	-2.0275986905901	0
14.010238366691	-2.1919402828937	0
13.55729974309	-2.7484698825173	0
14.240137580401	-2.6619477668096	0
12.917051988236	-2.4369691973858	0
12.879625457607	-3.0259697333822	0
15.191535490918	-4.924313627692	0
12.484375	0	0
12.086565658987	-0.57709382902849	0
12.758125436677	-1.01796672845	0
11.96236122703	-1.2284582090393	0
11.015625	0	0
11.318264939988	-1.2611066042886	0
11.475466841094	-0.64060339861446	0
12.852009680744	-6.1773420833061	0
13.072225890854	-5.405038899661	0
11.75	0	0
13.886294673494	-5.3329592763524	0
13.758879284747	-6.1456668635604	0
13.226726949397	-7.0485511502546	0
12.486647683567	-1.8707614222818	0
16.082690019272	-4.8838028544159	0
15.588249595521	-4.0858229696258	0
13.21875	0	0
13.352540526941	-0.46325628238061	0
12.45258115371	-7.3503371603357	0
13	-8	0
14.832628878105	-4.3011594131318	0
14.166838931635	-3.2806882428375	0
14.837679056872	-2.8631337404129	0
14.652463129072	-2.1856472856178	0
13.572273204992	-1.0938488821995	0
14.257450469287	-1.4834733391051	0
14.136499103215	-0.64728730968009	0
11	-8	0
14.906932583358	-6.8595391989725	0
14.50530276564	-6.3880454815302	0
14.180657895825	-6.9822987629868	0
14	-8	0
13.361788428331	-1.8441238959815	0
13.953125	0	0
14.860489128315	-3.6273128087287	0
15.023516208248	-0.78525331169581	0
14.6875	0	0
16.433738536114	-4.1591436718784	0
16.8292022244	-4.7493086727781	0
16.492671238228	-2.7570829143144	0
15.55378227869	-2.2395328783323	0
15.583809923027	-3.1816603901125	0
16.41147786877	-1.8589837305121	0
17.312602990133	-1.9876176433335	0
15.06680452402	-1.5886399739304	0
15.85107129564	-1.2339717480057	0
16.195600797192	-3.5412022318805	0
17.114058842164	-4.1917737383704	0
16.896094149161	-3.5575267671562	0
16.811448977771	-5.5938104794507	0
17.491952228104	-2.9614820164517	0
16.15625	0	0
15.750627365419	-0.51721425022099	0
16.30045814652	-0.5635762108592	0
15.421875	0	0
15	-8	0
16	-8	0
22.756862915706	-1.8570017610221	0
22.344534171134	-2.5456024048519	0
22.969878419642	-2.6472927337462	0
20.044005905968	-2.534398285706	0
19.517693861884	-1.7376224821256	0
19.295726866527	-2.3913520544351	0
16.40676546016	-6.4555129050585	0
17.018238820229	-7.033983679535	0
17.634670927242	-3.7791145708047	0
18.858048753151	-0.56694169011229	0
19.09375	0	0
18.359375	0	0
16.853086776378	-1.0597567726391	0
18.167541581048	-2.4176717555584	0
17.627135722909	-1.2162305966125	0
16.890625	0	0
18.803920155665	-2.6260600115479	0
18.805716510343	-2.0028710992174	0
17.596801646645	-0.52497032841282	0
18.243386992724	-0.86293430039319	0
18.167765680984	-1.6205595504649	0
18.884682322029	-1.2506979597346	0
19.738008291269	-0.72929214829284	0
17.625	0	0
17.30462052823	-4.6267683525864	0
20.055946740925	-4.2871034324514	0
19.251021539757	-4.0538766602334	0
19.724539057624	-4.9713633198339	0
14.698061916436	-7.4441215935864	0
17.612789726548	-7.4211394446211	0
16.96875	-8	0
17.9375	-8	0
[...]
CELL_DATA 1349
SCALARS Coverage double 1
LOOKUP_TABLE default
1.4447411391496 0.68774448890638 -0.12960774098565 0.093875897110518 -0.32082346392414 1.0862471950766 0.72959424259256 0.70359708244963 0.79024101844397 -0.15921418806519 0.14873002295065 -0.11281854639801 -1.0622804676714 -0.2748287623838 0.21838596972038 0.39764178857152 -0.13213445317511 0.13237883459882 -0.16903576045194 -0.035850098860383 -0.039053482200251 0.056270609086041 -0.0018667432541301 -0.13516875097166 -0.17989836697427 -0.14250957567814 -0.45395902416816 0.24052903339699 -0.062037266412038 0.16867969430009 -0.12564674881512 0.13559347437039 -0.059821572355429 -0.016741403411204 -0.38443386500557 0.13442888258994 0.091264774003757 -0.13757909055088 0.13651579254406 0.071050817534451 0.26890793313792 -0.098613627041059 -0.025843500840158 -0.84284407708121 -0.27573658788787 -0.17835278158561 0.22217830250725 0.17613319661886 0.18778984685198 0.01479161455567 0.32056483793157 0.25786912404087 -0.070034142330333 0.14395268450591 0.45942345689477 -0.48146534084115 -0.21326940310911 0.076735703979448 -0.19831419834596 -0.091938641024212 -0.14929635540725 0.23801792094025 -0.14189625692739 0.58493594648059 0.28614523549101 0.38304477916145 -0.091380271308235 -0.20233933953986 0.4549476356186 0.50270954190234 0.7882928026623 0.5600349748017 -0.073501379649978 0.0047428650498618 -0.26280550493995 0.077095055344222 0.36986201686297 -0.53390751273913 0.60662549602936 0.93530743618652 0.42302073228945 0.48107915611805 0.6106072997154 0.52698687514801 0.53919138420608 0.7554688710693 -0.83240239523077 -0.37997807680128 -0.12615838188496 0.67701095339523 0.11516516298002 -0.43113333581798 0.78083148227663 0.97448286442501 0.35486869397087 -0.41708727957145 -0.36256233490177 -0.88068183840018 -0.29828032879003 0.45203793408241 -0.64942135255854 -0.71956889274942 0.31879427974368 0.772118918721 0.64106505698001 0.35091244151647 0.719301670634 0.55805369504034 0.062614140665246 -0.60720840577613 -0.10362394342926 -0.12857688465763 -0.18771142319242 -0.18161977137169 -0.58986803583029 0.4305217328607 -0.64384592140309 0.55638637145435 -0.45958078869266 -1.1961780353593 -0.061916461007391 -0.73053490617745 -0.68578892744537 0.53678696249482 0.049728175965975 -0.12099879856542 -0.6605708134724 0.69304331930522 -0.05572773804067 -0.36902658663163 -0.94700869888147 -0.21088728958916 -0.44883354406914 -0.21737633108441 -0.67626474108362 -0.55659064344107 0.61222807094059 0.52864309522114 0.50509780306915 -0.092193086975752 -0.75265042798125 -0.10120536356433 -0.04231505128908 1.0274275033097 0.65246620903577 0.48194143318649 0.61984701422605 0.22978650151494 0.58795363334898 0.89447367336822 0.40798209670592 1.4645049896281 1.3099308130072 0.81668263794251 0.54635006088436 0.71562440403602 0.99394565327304 0.69293992669026 0.86582897491567 0.95925650539286 0.49846516032495 0.98989107013089 1.1937075377071 0.72258389553289 1.5125320055492 1.044319980178 1.1722757539365 1.1862821751915 1.1001616383664 0.91939679725289 1.0457996457792 0.6457230207579 1.2167840441124 -0.1876354656242 0.76161243016905 1.5325790598496 1.4058008555249 1.399536072426 0.1040114610144 0.073374401948164 0.19162705411236 0.3210523059172 0.81407777487093 1.0005992311419 0.87255962992409 1.3511567338738 1.1177870160158 0.89569528427236 1.7845096917393 1.5983156453827 0.82805077054816 1.3284628021987 1.3871507149749 1.4201364158102 -0.43555673391392 -0.24074574062233 -0.773783754617 -1.0113735842849 -0.67945320350264 -0.18813273352387 -0.052581215657941 -0.91093853055005 -0.48435236387712 -0.83754212550635 -0.85879776349185 -0.83933705472022 -0.39367735849215 -1.129986603982 -0.45401128119437 -1.0574241147114 -0.17814888182085 -0.21029894968982 0.97143927345976 -0.89106643694316 0.32023604210177 0.65775749512882 -0.313142417638 0.31864715225025 0.45950165942891 0.5884909114126 0.41547928864251 0.63097709636625 -0.85852123199337 0.71161586980011 0.38169900757166 0.49659927841721 0.12961386583647 0.084219907645277 -0.21632673988447 0.064552263647005 -0.32354963321121 0.015777024737175 -0.22712455686248 -0.0035086128600711 -0.10186349239997 0.034698484250556 0.16483627326838 0.091732754167607 -0.20313420978395 -0.069769879335717 0.36823533609887 0.23595653589183 -0.22091042166217 0.17408670145641 0.14900918525269 0.045014821736626 -0.072497040209538 0.10674453718339 0.090139177588742 0.12320640146721 0.074810118497485 -0.05617581274977 -0.2349377121254 0.041826606567606 -0.21272772510442 0.025862086172538 -0.2181098592551 -0.079162056773596 -0.30749436604105 0.026806867980866 -0.21615197368683 -0.13665337784085 0.58625178362145 -0.29308959920875 -0.13260860687212 0.32308660335244 0.4047930083625 0.37410662253322 0.58871250880962 0.013451911559854 0.51617546236803 0.3263735855578 0.75669156536095 -0.056568397062854 0.29723058167546 -0.3054308674076 0.08001305653314 -0.21004381483383 -0.19310133201932 -0.094510095696875 0.36014469197366 -0.28869972021837 -0.21728964575838 0.2625173861186 0.60581712617177 0.046100789877834 1.276581172049 0.45038949945168 0.52941764159596 0.02121030587662 0.44695805247152 -0.029736505043439 0.17629426687098 -0.14136182037847 -0.1217794907804 -0.18329078988137 -0.18543267520995 -0.19899811855976 0.60360336724554 -0.13473321009305 0.66576449092636 0.68220525186326 0.62100508294027 0.70425609744996 0.78617496441191 1.5233728707326 1.7426108690149 0.49151031865391 0.80548580326823 1.1717812669053 1.5262554575915 1.0452000408517 1.0361355217019 0.80140392320433 1.7905087565355 1.5027735129584 0.87371705741048 1.2877545150551 0.73449691461886 1.5167842460993 -0.42275245646232 -0.50627503380995 -0.12546256748219 0.60897340142852 0.41332390402328 0.24390058414164 -0.50816726539123 -0.35489430652588 -0.48166394778085 -0.18736993586439 -0.02674952401502 -0.15634468400546 -0.10900492274837 0.37857162477306 0.38743349716658 0.086571407038352 0.54590327342511 0.74627534884168 0.6997646197095 0.12887224503067 0.56060525004303 0.8884851867044 0.78385940193417 0.53107751639957 0.86220288402506 0.87322702472834 0.1496136055678 0.86339127969979 0.83548103174637 1.4989125594145 0.77266335763967 1.2663429780399 1.8091986440021 0.76271171085241 1.1293888579486 0.89311464178426 0.76603546791681 0.82825495856253 0.78925153217513 0.71867501910979 0.80918890647009 0.76805579490738 1.0105130241556 1.324505074684 1.6151940262396 1.2981498112439 1.4923490240436 -0.16830298566062 1.4713265280816 0.041597874879038 -0.16686596131337 0.56961980389463 -0.090185658185436 1.4839917854874 -0.13654024756782 0.24365109508556 0.18221437105105 0.28768460884834 -0.032318556135172 0.28256375270881 -0.11656144059845 1.0489839077493 0.43236329984184 -0.0078648072402344 1.6211094980229 0.11378655684957 -0.045444578311963 0.94314859824134 0.47540538852049 0.10209993169778 0.80027293035688 0.82975972204461 1.1042490472829 -0.0027410022150995 -0.28080983449 -0.16660609033407 0.011998789018684 -0.094209951176523 -0.12981516610768 -0.18367756969878 -0.15912533382514 -0.18869286743941 -0.10769378022518 0.068347101798079 -0.0019524638995003 -0.07463390718157 -0.0157589250756 0.061212829447569 0.09352124033067 -0.056831540876607 1.7978386068553 1.1298046003632 0.92040746093716 1.2047342728607 1.3569786560682 1.4551247493069 0.95286812477283 0.96318245846012 1.6211120830897 0.93350877291858 0.89863585496024 0.82311956530483 0.9065848313022 0.79382742622077 0.77270205526476 0.79386331472501 2.0251092131604 0.7846692898179 1.6104863680587 0.66051427257513 0.74619017494792 0.23518630909913 0.47157069393576 -0.076896204328009 0.13319898431546 0.40381233114518 0.68609659310237 0.78070520189991 0.76349350928964 -0.07343089818438 0.059745830649513 -0.097494842929425 0.013725483184678 1.2286792069464 0.88094590358354 0.77379903087568 0.79817543638705 0.68160035350874 1.0775408188216 0.89676309536737 0.83447147257351 0.89944417113936 1.1527249392627 0.58374580767188 0.70649193462675 0.7128645684181 0.6382664082502 0.44571448170364 0.76542898060653 0.59201704914694 0.60930521475716 0.56647046647186 0.58825177924941 0.062229322750417 1.6807684945613 0.59504117414078 0.77302506054481 0.8948593682312 0.93063563053127 1.6218080739325 1.0231052975153 1.803218220085 1.6878893554073 0.32377920772966 0.92015929211739 1.3314430227454 -0.26853151766623 1.0167287351428 0.39147517886035 0.79707982019945 0.79941313344112 0.31017117861093 0.40501058939649 1.8746069571594 0.030893835788308 1.352916175538 0.96279958031505 0.57295879479384 0.5798441950418 0.076749770201878 1.8403355391988 0.67748827528897 0.94543744290814 0.71754485196919 1.0150349364993 1.0055513565934 1.8935354094539 0.75613032398752 1.308361203968 1.2422011620963 1.5410355829491 1.6304244146088 1.3726471899083 0.96674865385104 1.5956760341985 1.0726597142638 0.94364916435052 1.5887663661608 1.8365790505557 1.2382573180475 0.44934591885979 1.5956035609425 0.6431549084076 -0.15285580834879 -0.12319107978682 -0.10972716506431 -0.14490916879348 0.053093605396423 0.54521997538754 0.1003878134074 0.098085336597861 0.66110886158245 0.021303501330657 0.21009574914551 0.93401392250769 0.23658560638314 0.090941810767236 -0.37448736349835 0.40200256566371 -0.21310206756975 0.38544508743194 -0.41126278928119 0.33429101086801 -0.058411216165858 -0.30371638319449 -0.3561215523456 0.093847149853331 0.27164935917736 0.26575645715289 0.2144875407879 0.1425675212705 0.60681005215321 -0.41247885253284 0.15396232512279 0.72764343511524 0.55374083558332 -0.11540604932296 1.6627370669635 0.65431857433029 -0.031925327274757 0.3814305777293 0.6675392289094 -0.34724684895607 0.62497253895982 0.34975488509782 0.69997098314548 0.18451500332288 0.17778160402367 0.33229269536199 -0.15748625452892 -0.20581453878052 -0.19472046818699 0.34346935512781 0.4716714851023 0.30672182487902 0.17045360939796 -0.29396235308913 0.60880198034938 0.65143666813075 -0.088801614623145 -0.14715500892815 0.012276282244767 0.99076831618067 0.11986383416606 0.21322164910441 -0.018332433059991 0.66693458389999 0.67373615462719 0.24584886570667 0.27039769729769 -0.23336283198256 0.46523344736605 0.72130986607462 0.80451730494464 0.67360820267162 0.71388301721672 0.79338280039064 -0.034207382064445 1.1046925261007 0.7672438397501 0.68810280805538 0.82639026422897 0.77136273591853 0.58507662515173 0.76722221412227 0.45354771578291 0.40369363512965 0.61438474204574 0.55498355978528 0.073166560412902 0.4343481528461 -0.29786855818994 0.30442594475069 -0.19764083766361 -0.10491099244319 0.21923088100679 -0.10055387966987 0.44140955225121 0.58143310031078 0.14229400671286 -0.033833399445814 0.10378069110312 0.21799495592168 -0.19309559798437 0.3249646769888 1.2085704565194 1.5658023566998 1.2261512782016 1.0528813424333 1.0273205565393 0.86293048792236 1.892145155604 0.8563655132398 0.76396566491087 0.7652197555626 0.92643230132654 0.82909647190703 1.7373633700523 0.60161522464697 -0.080211770407913 0.4471631736294 0.077604081525488 -0.2503152825441 -0.1398737549276 -0.20978560133978 -0.1298692987405 -0.21884360852095 0.33359558770887 0.056456604937108 -0.030996696252877 -0.22949989333738 -0.26211959623319 0.331827760037 0.10505666888549 0.088553387673003 0.00040175589523301 -0.0046638591130971 -0.27213478172 -0.18156491082394 0.7299173298497 0.50574460784422 0.5610304086225 0.65880083374979 0.75083963506603 -0.22792988184343 0.79999965738979 0.74467951982658 0.46333593429558 0.8254576362843 0.81862108951516 0.25278092242409 0.054670501482589 0.8053737559935 0.82277146133392 -0.10725867576989 -0.14697580218759 0.77311088720297 0.76775216833098 0.082005367880374 0.37179915287561 -0.17743366656634 0.38060906754995 0.68534151112236 1.6234310624941 0.77988470934175 0.83751005051675 0.059998185084643 0.73771125672081 0.81550438816799 0.091498731426993 1.6894340703798 0.92977582093754 0.91297329771102 0.9881693989277 1.3577189345191 1.8422808256543 1.0095235153799 1.5933610541716 1.0263234868713 1.114965174857 0.11933917910224 1.5773127040621 1.13519570965 1.4887754055291 0.64913047971152 0.38526747093264 -0.1661302435922 0.39529282416158 -0.23607155765277 0.40092881286366 0.39086873088302 -0.20661820789509 0.63630241881593 0.82164035958463 0.70795716643087 0.49189014892908 0.08075056644088 0.78213935834427 0.71860803911592 -0.25539194938913 -0.082493624261471 -0.0091805034189618 0.33419804277032 1.3285451901644 0.23171783097245 -0.23974493281338 0.29470350171144 -0.33140424905073 0.065276803051547 0.11674697961553 -0.12134890185442 -0.061067365519031 -0.26459027558947 -0.46094017733569 0.15432136227345 -0.18443758435935 0.74638781545973 -0.051847379010595 0.19569340576521 0.34236203846777 -0.19785413949735 -0.15269348780515 0.68312378155664 0.61712525491272 -0.22318132746212 -0.24505408300832 0.48480088340948 0.46619148459046 -0.19277076890706 -0.19715311161204 -0.068147254354075 0.20530393382307 0.22943527253174 -0.011980318540989 0.63700176051316 0.84822251261693 -0.26615310679498 -0.20281865241121 0.95034946376357 0.6878145667984 -0.084096670649425 0.28326310695252 0.71464736610776 0.71625492289668 0.64978531356077 -0.15308101825067 0.73625733267774 0.75551823461739 0.76244675222255 0.52083981586468 0.23863889275441 0.86910620489454 1.0803661915468 0.68569816224891 1.6287265712152 0.86989293709422 0.7812268256831 0.70996018074565 0.5641207308849 0.71419394149046 0.82673347752832 -0.0013284210741494 0.095895924148989 0.88024364121002 0.41485741524255 0.50636946080577 0.7627609337381 0.7136211774497 1.7279349421036 1.0103299774742 0.75112624723382 0.88745031399254 1.1203975905228 1.8403438184323 1.0016481046037 0.90554922215669 1.4863139679162 1.6968367226654 0.7757716218184 0.76658117594426 0.79955821904171 0.74992830979852 0.87788329327386 0.80542751701321 1.0876172127868 1.6326547286329 1.0669589615148 1.5211558383952 1.4460634635771 0.82104494774288 0.96570912648023 1.2555571196418 0.65520771751911 1.5274286011262 0.8917309728247 1.912653540564 0.10209253866477 -0.1329296296127 0.19760102682091 -0.093864290493287 0.4959022761423 0.56285927660562 0.24536317780491 0.27237956672262 0.15936468920874 0.44410689445792 0.23753578912831 -0.45417225196367 -0.50650927849944 -0.087438224918961 0.30044830546734 0.071591891992222 0.29750436606558 0.43854679485673 -0.014742122051884 -0.053122355464787 -0.016566857083436 -0.35525517120657 0.096980402313476 0.087923905055359 0.091022996315952 -0.048491068228724 0.36496566505157 0.55864518384736 0.35480352238517 -0.36330225145004 0.42408180266592 0.37064946979584 -0.18525241912496 0.081716148130062 -0.24842507931679 -0.21548520851514 -0.28179462330699 0.036359749561348 -0.037422611338758 0.61623088266606 0.24847545332707 0.68179389117383 0.24303031550619 0.047547319800045 -0.19882103709028 0.97131519084208 0.31717648059427 0.58966757907048 0.32066079696078 0.64921661966562 -0.0069305501465086 1.4979109584632 -0.39581387618903 -0.34832250029584 0.46335979168211 0.60140863927946 0.7588672922808 0.66070937822946 0.73723650518876 0.39578315456536 0.67043716646761 0.66369149036561 0.69916599363897 1.0738718192146 0.69602819524274 0.10131107923586 0.71798279699179 0.83733487885759 0.84662780976895 0.3774267915232 0.63605857678605 0.93233979777235 0.98285776864486 -0.29315525730008 0.80824835504283 0.81663747447984 1.2675599502425 -0.42798030741751 0.85966924300728 1.2314722294793 0.78319056206586 0.86102328163777 1.0818341524633 0.82077671911347 0.81627170202988 0.6671477222144 0.33669855920665 -0.15284785749001 0.66460257165339 0.041694761566188 -0.29654405016811 -0.42819621654313 0.88059678567959 0.94497668049375 0.86443409121526 0.76054235970033 0.88960986419696 0.93099044803228 0.83966073744565 0.43983949697612 0.35001197497424 0.87286689556824 0.94914361540539 0.886110455701 0.72772119433005 0.45334768622444 -0.40334131606076 -0.32447894374227 0.16594431124049 0.27122219050021 0.62213938717852 0.30596992180881 0.41220110224613 1.5768405586927 1.9709832369791 1.9477030770337 1.3275288231186 1.159800440839 1.1643191109226 0.90283661108908 1.0308826957733 1.6372873064676 1.1156054044985 1.0370869135744 0.96916340932644 0.95044933561926 0.98457417305079 0.91937197686128 0.91243202554287 0.8537881028862 0.94702425280677 0.87960786789416 0.88929649562384 1.5225772100066 0.97821303467978 0.85931962341537 0.80402878326778 0.7903754736877 0.76482275505983 1.1297299356305 1.0074574951846 1.8560998516431 1.4223609729679 1.8339653196256 0.96613574479331 1.2924707516184 1.8473753327663 1.5879014265398 1.2220880129604 1.0706209307933 0.80424181512217 1.4527868728257 1.3838442642066 1.0282594579163 1.6047809701583 1.2253383940148 1.7128898062897 1.6136536551083 1.5912948574044 1.3045551664283 0.77319943651397 0.96259391638474 0.73779058665178 1.7136695129586 0.63652965483876 0.77234685101971 1.2072449831974 0.97021467160267 1.5101704021568 1.4756328537602 1.1073759441039 1.5045676651976 1.035444631674 0.87333884654117 1.8064878912661 0.6946153190802 0.81329768676045 1.0896365500183 1.098345805385 1.2451514555762 0.82148587541272 1.6159561716654 1.4778123045477 1.8278930787946 1.2486782052882 0.66854475156599 1.0412165146426 1.4731839903091 1.5430563494503 1.2340676472616 1.488657446145 1.7999834716923 0.95599816377204 0.81771519486629 0.79887357657087 0.70636286169998 1.8269933291727 0.75680577233007 0.70849853050652 0.83072133913042 0.92281482386573 0.77773429286743 1.4736751338677 0.73409728976536 0.80648715519373 1.0341840295692 0.67189897950534 0.62429180101908 1.0604463228645 0.96764278713581 0.75914349000687 1.630815203781 0.75836127317369 0.7954651800925 0.57352781640574 0.5516749349366 0.74027626493664 1.3829930393891 0.55814817114976 0.73085379690982 0.10728587012802 0.25277808041644 0.97542765406305 0.74316835025961 1.5044270766117 0.59756053149879 0.7168971894472 0.34812632988927 0.48020311053492 0.33524657071115 0.041939350429228 0.74336077778774 0.77707597023961 0.61229532775485 0.77652243686422 -0.14273060498027 0.18747931919831 0.57926132318243 1.2974707966255 1.0284545080748 1.6790273189904 0.64835438866118 0.74885858076592 0.66662995799792 1.2964505327235 1.0254654448947 1.0271164713449 0.94168458006052 0.50570193294957 0.58884265524354 0.93708578393379 1.4950207742325 0.54432702950615 0.88735551173794 0.94425479244214 1.2881644704571 0.62206666021832 0.63864389202305 0.87451727857352 0.48112335934743 0.54408684603224 0.094787398345752 0.46444538202172 -0.21299173472771 0.24575276803122 0.098745339517266 -0.16793353047797 0.108911294734 0.044564399529948 0.081211597792091 0.45543166164272 -0.28879052399328 -0.16467693887936 -0.14690530890417 0.46902009492548 0.058265096097823 0.18772696041049 -0.00079750066790151 0.37078822872944 0.64247356462022 -0.11043998103381 -0.10349728563931 0.093670129913647 0.46371713530447 -0.026980880687112 0.28049921899367 0.44689692078501 0.57176118294913 0.51810386205206 0.66283925500586 0.46283986308594 0.51827400830121 0.44442253977698 0.62236480124055 0.54672527122427 0.55352022201078 0.56094595957398 0.54364706639342 0.43181360359544 0.19799482256379 0.51056044603545 0.58046274790683 0.44438587831642 0.540889664417 0.44145345186117 0.10748688880802 0.053654128022218 0.083260515585107 0.57915307596835 0.59614318788494 0.0025019261067672 0.079819077033252 0.77444172004343 0.77856967303716 0.41796116466089 0.46645013094018 0.65497017406405 0.74561921574164 0.40047619631408 0.49719028790604 0.79265247411888 0.55146219689378 0.80256786945061 0.57524572954449 0.77583832105949 0.70659638122082 0.50695099741058 0.51533440251246 0.53639534288271 0.53917070383803 0.62761597906874 0.6124429517267 0.61401285854972 0.5799896755971 0.39342876678827 0.45695553715161 -0.017362362527715 0.22220549002572 0.47877568201354 0.49042257564494 0.44217181324586 0.35102808246778 -0.12486369443807 0.50421382458242 -0.22830435868423 -0.25488528287785 -0.12928286646704 0.45111576838595 0.11561843305163 0.23218200945362 -0.1044430672608 -0.016372244481632 0.48503069574358 -0.015966829806824 0.36307512212259 -0.37308631091394 -0.36366333086408 0.2429700835204 0.08303918574615 0.32855078633268 