# vtk DataFile Version 3.0
d-2__ created by libgimli-v1.4.0-22-g2d6c0250
ASCII
DATASET UNSTRUCTURED_GRID
POINTS 739 double
35.25	0	0
34.766081542978	-0.82021566092004	0
35.632578047987	-0.72883630452407	0
24.024974223709	-3.3959938323052	0
23.653360812241	-2.7288670633191	0
23.229010511392	-3.3529576731171	0
4.0418655321018	-4.0506862785614	0
3.4460515782386	-4.7439961566826	0
4.2311515920029	-5.0809003825016	0
15.407766344465	-7.3730645449994	0
16.233299169082	-7.2585920105004	0
15.614499752591	-6.6705036155538	0
0.87966150056611	-3.868344094725	0
0.53946997502051	-4.5402672655454	0
1.0423668045247	-4.5416868935558	0
10.044780655634	-1.38528895599	0
9.2449702923403	-0.85837555044783	0
9.345362148561	-1.7444613449413	0
9.4404614270197	-2.4142126442597	0
8.8670364751027	-2.2005241160204	0
8.8981197610435	-2.9065452242835	0
40.643431096227	-1.8007378109998	0
40.90951054121	-2.5500139899776	0
41.411624169268	-1.5999858451814	0
30.395367991702	-1.9693062955434	0
29.554682165597	-1.8859186953224	0
29.759185494429	-2.7694853144209	0
5.1523452594718	-5.0731882456395	0
4.7333838933121	-4.4274311535604	0
4.8293365853565	-6.5416884368369	0
4.6531391287001	-7.357849878802	0
5.3618836946219	-7.2453518540761	0
2.420340802333	-5.9803755969777	0
2.2095578170366	-5.1629239562001	0
1.5749245865607	-5.8280971878667	0
6.4631285840114	-5.7234774575293	0
7.0614370368234	-5.3339000067243	0
6.4310774709665	-5.0305550495624	0
6	-8	0
6.8149088859959	-7.1369339193422	0
6.0380890087879	-7.0593430649453	0
2.337095399571	-2.7024130282098	0
2.4182611852565	-1.7461085668484	0
1.7314028473745	-2.3660256592611	0
4.7120578677277	-5.728342736769	0
4.0027109767498	-6.0857371454819	0
5.6471126438986	-6.5176179037	0
5.8650720782736	-5.3997839601918	0
5.3575291744975	-5.8713437985688	0
8.8206498418204	-7.3549687861435	0
8.4413342175328	-6.6552453659709	0
8.1531633313928	-7.3876617519353	0
5.9380884743294	-5.9807090902451	0
6.340105930545	-6.4315959866684	0
4.0658421990741	-7.0053381340916	0
5.3593802187152	-4.2767652155575	0
5.858312820725	-4.714231643898	0
3.5539747292485	-5.4650356113086	0
3.1722088864894	-6.0889775775066	0
4	-8	0
5	-8	0
4.9041715027695	-3.6404381370114	0
6.3841275467394	-4.4206981320864	0
6.7082817957996	-3.6916407749453	0
5.9717371155479	-4.0622525356292	0
10.455786908479	-7.3899923003538	0
10.069732056581	-6.7108805202894	0
9.5950164365213	-7.3631486063629	0
2.7298127856572	-4.5788385214117	0
2.0726289944547	-4.3946730213117	0
7.1327228036634	-6.1871299893166	0
5.9922272054042	-3.4924814834306	0
4.2186757807963	-3.1085730056651	0
5.5515996961085	-3.721657217286	0
5.5244600938001	-3.1299237043516	0
2.921729566446	-5.3311984568052	0
6.9648131056334	-4.5768127754969	0
7.6649814503624	-4.8682074785256	0
7.7420202437717	-5.6148710814956	0
5.5676567450914	-2.3292148446412	0
4.9222559921608	-2.7486617302843	0
6.1971181697204	-2.8540900672423	0
7.0212731257583	-2.6573891139302	0
4.0890680178231	-0.80500860446348	0
3.2172049700142	-0.97874737870402	0
3.8193790308275	-1.6629755476804	0
8.3416777787407	-5.1833881033199	0
7.5572275114128	-4.102709076165	0
3.5794694184609	-3.3774522548669	0
7.6088637440976	-3.3061553813084	0
8.0396305197243	-2.3832345250595	0
7.2501992898856	-1.8315241352993	0
7.8258608922489	-1.346118462439	0
7.0328259049448	-0.91494393004697	0
6.369261658854	-1.8257400853179	0
4.9672453990647	-2.0402364640941	0
5.4220884530876	-1.389640384905	0
4.5794425818972	-1.4753994016058	0
0	-6	0
0.75115345976489	-6.2921750472139	0
0.77632627405085	-5.2976449958587	0
2.3034188316378	-3.3286511292171	0
1.9431807852442	-3.7381185229599	0
2.5260903249391	-3.8678537932067	0
7.8699182234219	-6.2360358230764	0
7.6542578277896	-6.8451202459774	0
8.2655479110563	-3.2088163092203	0
3.2040934351226	-3.9685105959404	0
0.734375	0	0
0	-1	0
0.61443623639171	-1.1818049446663	0
0	-2	0
0.52853507360799	-2.6508136276114	0
1.0036880328999	-1.9729809919743	0
1.8146822935359	-3.1226852479236	0
1.4514208372378	-3.5701769998337	0
1.5278007240401	-4.8942112229174	0
0	-4	0
3.5512838533278	-2.5599597745499	0
1.4868063674291	-4.1631811125537	0
2.9034746231188	-3.1852042312138	0
2.8721321228156	-2.4183325865144	0
4.3412571586717	-2.2647172445937	0
2	-8	0
2.6659100987264	-6.9662786892768	0
1.8544139966028	-7.1043716111303	0
0.5079131956491	-3.2995937075409	0
1.1307352897668	-2.9800868127229	0
3.4693050880931	-6.6981202008635	0
1.6868535240114	-1.6376438628027	0
3.440232320933	-7.3347847410184	0
3	-8	0
1	-8	0
0.61268418967956	-7.4660603407378	0
0	-8	0
0	-3	0
4.8535502314262	-0.7073385918545	0
3.1733778454903	-1.8751252197409	0
2.9375	0	0
3.671875	0	0
4.40625	0	0
2.4330107061784	-0.73760748326961	0
1.3333015130559	-0.9315959698365	0
1.8766050689234	-0.56293537948883	0
1.948537503014	-1.1293433308992	0
0	0	0
2.203125	0	0
1.46875	0	0
6.1316050836961	-0.78450548287625	0
5.484535700698	-0.57615159438342	0
7.7277917280599	-0.60111054434286	0
8.400860817486	-5.8876225358776	0
9.5630097790906	-2.94368847844	0
5.875	0	0
6.609375	0	0
8.3805420158992	-0.72883907306127	0
8.078125	0	0
5.140625	0	0
7.34375	0	0
1.9753969304143	-6.5108597214121	0
0	-7	0
1.3689252361078	-6.6773065404534	0
1.271866542911	-7.3681658699021	0
0.79843667000352	-6.9610346280904	0
0	-5	0
8.0934491987285	-3.7402798363746	0
8.3526223075714	-4.3862968716516	0
8.8812932222946	-4.8495908353712	0
9.2495369766643	-4.2685648122416	0
7.5241925852712	-7.4735725008744	0
7	-8	0
9.0708714075818	-5.4858233310482	0
10.678386559089	-3.3272598792468	0
10.804571464251	-4.3307964217889	0
11.41891875058	-3.7351133902904	0
8	-8	0
10	-8	0
9	-8	0
9.2512683726635	-6.7158200190867	0
8.5	-8	0
9.6398646977454	-6.0569476299073	0
12	-8	0
11.701190691715	-7.0178795707848	0
11.202571672499	-7.4461441005432	0
8.9599697063497	-6.1597869948541	0
11.233165938823	-5.1597635949138	0
10.502612452147	-5.0816627650991	0
10.624270039711	-5.9297050009808	0
10.875476750227	-6.8176234265893	0
11.297502262295	-6.4093708180867	0
9.4009670005084	-3.4945762481523	0
8.704031409935	-3.6771790743333	0
9.8711091463184	-5.3516531775058	0
9.4076131337331	-4.9197440922233	0
8.6148589807278	-1.5468768747086	0
9.9767463500217	-4.640261707511	0
10.015519359214	-3.8912900484212	0
9.9562334753365	-3.2602198917368	0
11.542293243434	-5.8727156156799	0
11.533831101922	-2.9603017492445	0
12.154184826355	-5.3073953175186	0
12.205039694262	-6.0302968717877	0
12.565653848073	-5.7317611342705	0
12.283650708161	-3.5816924475913	0
10.110157211253	-2.637865210986	0
9.8587877567004	-2.0420494257341	0
10.28125	0	0
9.546875	0	0
9.9649662999966	-0.60627195995189	0
12.70465236974	-4.5100365304716	0
11.770287658143	-4.440650932946	0
11.617832441555	-2.0064323806666	0
10.859498247607	-2.4328581497823	0
8.8125	0	0
10.705622488639	-0.78896034843682	0
15.06553672398	-6.276028353677	0
15.680974072729	-5.7849759373399	0
14.632715739621	-5.6685994613595	0
12.365976924043	-6.6743633558583	0
11.813005918224	-6.4031309146134	0
14.38647420984	-4.8199859379677	0
14.194804380357	-4.0595150993604	0
13.597094220068	-4.6359830373028	0
12.293397764589	-2.6540853557846	0
13.34178425423	-3.6968226496998	0
10.821707318997	-1.6462338807521	0
10.342661210516	-2.0275986905901	0
14.010238366691	-2.1919402828937	0
13.55729974309	-2.7484698825173	0
14.240137580401	-2.6619477668096	0
12.917051988236	-2.4369691973858	0
12.879625457607	-3.0259697333822	0
15.191535490918	-4.924313627692	0
12.484375	0	0
12.086565658987	-0.57709382902849	0
12.758125436677	-1.01796672845	0
11.96236122703	-1.2284582090393	0
11.015625	0	0
11.318264939988	-1.2611066042886	0
11.475466841094	-0.64060339861446	0
12.852009680744	-6.1773420833061	0
13.072225890854	-5.405038899661	0
11.75	0	0
13.886294673494	-5.3329592763524	0
13.758879284747	-6.1456668635604	0
13.226726949397	-7.0485511502546	0
12.486647683567	-1.8707614222818	0
16.082690019272	-4.8838028544159	0
15.588249595521	-4.0858229696258	0
13.21875	0	0
13.352540526941	-0.46325628238061	0
12.45258115371	-7.3503371603357	0
13	-8	0
14.832628878105	-4.3011594131318	0
14.166838931635	-3.2806882428375	0
14.837679056872	-2.8631337404129	0
14.652463129072	-2.1856472856178	0
13.572273204992	-1.0938488821995	0
14.257450469287	-1.4834733391051	0
14.136499103215	-0.64728730968009	0
11	-8	0
14.906932583358	-6.8595391989725	0
14.50530276564	-6.3880454815302	0
14.180657895825	-6.9822987629868	0
14	-8	0
13.361788428331	-1.8441238959815	0
13.953125	0	0
14.860489128315	-3.6273128087287	0
15.023516208248	-0.78525331169581	0
14.6875	0	0
16.433738536114	-4.1591436718784	0
16.8292022244	-4.7493086727781	0
16.492671238228	-2.7570829143144	0
15.55378227869	-2.2395328783323	0
15.583809923027	-3.1816603901125	0
16.41147786877	-1.8589837305121	0
17.312602990133	-1.9876176433335	0
15.06680452402	-1.5886399739304	0
15.85107129564	-1.2339717480057	0
16.195600797192	-3.5412022318805	0
17.114058842164	-4.1917737383704	0
16.896094149161	-3.5575267671562	0
16.811448977771	-5.5938104794507	0
17.491952228104	-2.9614820164517	0
16.15625	0	0
15.750627365419	-0.51721425022099	0
16.30045814652	-0.5635762108592	0
15.421875	0	0
15	-8	0
16	-8	0
22.756862915706	-1.8570017610221	0
22.344534171134	-2.5456024048519	0
22.969878419642	-2.6472927337462	0
20.044005905968	-2.534398285706	0
19.517693861884	-1.7376224821256	0
19.295726866527	-2.3913520544351	0
16.40676546016	-6.4555129050585	0
17.018238820229	-7.033983679535	0
17.634670927242	-3.7791145708047	0
18.858048753151	-0.56694169011229	0
19.09375	0	0
18.359375	0	0
16.853086776378	-1.0597567726391	0
18.167541581048	-2.4176717555584	0
17.627135722909	-1.2162305966125	0
16.890625	0	0
18.803920155665	-2.6260600115479	0
18.805716510343	-2.0028710992174	0
17.596801646645	-0.52497032841282	0
18.243386992724	-0.86293430039319	0
18.167765680984	-1.6205595504649	0
18.884682322029	-1.2506979597346	0
19.738008291269	-0.72929214829284	0
17.625	0	0
17.30462052823	-4.6267683525864	0
20.055946740925	-4.2871034324514	0
19.251021539757	-4.0538766602334	0
19.724539057624	-4.9713633198339	0
14.698061916436	-7.4441215935864	0
17.612789726548	-7.4211394446211	0
16.96875	-8	0
17.9375	-8	0
[...]
CELL_DATA 1349
SCALARS Coverage double 1
LOOKUP_TABLE default
1.4606036943319 0.75181521750341 -0.32571489965688 0.35888755433305 -0.21731335350924 1.1271152483061 0.64399762861726 0.71947126966671 0.88249843751192 -0.31247086919463 -0.50411898239088 -0.25038220092824 -1.2320377481262 -0.072514044303929 -0.5439599406788 0.60338429696971 -0.35051393773444 -0.48399150725614 -0.30851473662446 0.87900125201112 -0.3073592107997 -0.660132882066 -0.44840776593938 -0.17390676691117 -0.31452120338464 -0.33942227120452 -0.51066991104097 -0.39691382037142 -0.30989973584156 -0.60759141197404 -0.29850532912623 -0.063325024735106 -0.33444662078253 0.044499618083697 -0.39432098023169 -0.34759725630976 -0.37132809570983 -0.30452190668989 0.37526047359441 -0.51865882320686 -0.59709725732164 0.3154008584446 0.19311707287387 -0.71056183281477 -0.33113354341541 -0.4308291973805 -0.54405889089422 -0.59996705611542 0.47640469147491 -0.20272432860105 0.078102922667047 -0.018088613726282 -0.24912382828694 0.17200333781517 0.26615739806526 -0.58622574840063 -0.12484619565416 0.020673282005126 -0.35663840490381 0.085767152284178 -0.018770364500456 0.082061551262811 0.24893440723332 0.38504987734374 0.33114377796066 0.37621592371188 -0.40807986132997 -0.44845927230637 0.70920829431623 0.28991011864093 0.95532188579872 0.22332423512783 -0.46725788855355 -0.51588925173962 0.057417571020218 0.50471056964942 0.18443846332645 -0.48078652547105 0.79444220843077 0.92211327710278 0.58925701527722 0.49352383230068 0.62111858007518 0.47657084905718 0.65680490217091 0.8331393429904 -0.16073275937762 -0.28306421121662 -0.37941991035672 0.78753339602065 -0.033991181122694 -0.30697040945881 0.80453359103967 0.91422834058315 0.34881595562225 -0.362454490351 -0.43128236253791 -0.89883819215916 -0.09851100522819 0.31494928594844 -0.6276658440467 -0.87089669086106 0.44631702351752 0.82166118590966 0.48360039724574 0.57231513659816 0.83603756645863 0.31650223697261 0.098878615540662 -1.4420661371708 0.07244897007814 -0.12568713748873 -0.19900856206883 0.010204294212523 -0.57375989096975 0.35684748786322 -0.593103472513 0.49886259477234 -0.23076551937679 -1.13745072144 0.11141518417441 -0.62491385110864 -0.49489086071193 0.61632083874675 0.11912717322793 0.14430355273557 -0.62631474169795 0.7241130916985 -0.018999437014674 -0.38895077810129 -0.89465324523839 -0.3456823793974 -0.3139414318365 -0.55541990498281 -0.43173497799536 -0.54817754383209 0.35022532723134 0.46124473780828 0.75957967621879 0.025443371076924 -0.81179253118854 0.14482121638666 -0.79824672414016 1.4083593358207 0.73537885791717 0.79964469480968 0.42734168663744 0.26923689757019 0.65129841629754 1.0310730138205 0.50055063971452 1.50483239182 1.3469889076309 0.98186257582301 0.80345083066403 0.92928874710107 1.1060768554323 0.93977285023155 1.0478970787983 1.080680362079 0.76578436181305 1.0757311740515 1.1898694778997 0.94237079216147 1.5604920539474 0.97056287921061 1.1529099591728 1.1441882600043 1.1524838222357 0.92448896748029 1.0825364888382 0.71746268518193 1.1681181249009 -0.28947549244975 0.57540246778885 1.5405097586264 1.4022628860222 1.4017901433889 0.069336303454444 0.16378553245998 0.22772518187167 0.32706333166029 0.8774209128672 1.0522753340887 0.99698657670126 1.3786053596927 1.178183963727 0.92261783518104 1.7709298559538 1.6003512316631 0.89545026839396 1.3231908650555 1.405125488695 1.4556826289702 -0.52069452791248 -0.42291956992007 -0.78022718519296 -1.2392598964482 0.22607554943168 -0.62374949007079 -0.63018053311511 -1.3610349175877 -0.75646897876158 -0.31949408374079 -1.4560762125045 -0.66566309766737 -0.16993600443607 -0.82651735459233 0.2199406255531 -0.50001663803695 0.36512923593788 0.54908100332488 1.4032552168437 -0.70150755705524 0.86228921401998 0.71782522883589 -0.45326075888948 0.48505841489176 0.49486670976889 0.80074070238342 0.56203324973695 0.64211620542615 -0.30852182465078 0.70596874690657 0.80418168836811 0.81058400526376 0.51490489323432 0.21868909276746 0.26467740454925 0.62816737621582 -0.17789371171366 0.27518325119259 -0.50225839489189 0.50837728117182 -0.38050941820405 0.556553792665 0.17783439419581 0.15016045527186 -0.33560071188385 -0.015254689419864 0.48520080860472 -0.3162237291189 -0.078271176600037 0.65812684758668 0.8655797156031 1.162140825036 0.82343460906628 1.2361725138512 1.355394768799 1.1632078324133 1.2324184548552 0.64169173420876 -0.14638766597171 -0.10871228528128 0.033674297809271 0.2953131455786 -0.40668664670428 0.36462216700873 -0.43112704878847 0.67525656767458 -0.37415517917351 -0.34647575535415 0.60581152347686 -0.43754599234063 -0.17724825898496 0.74900489780893 0.53808975181473 0.80545765419128 0.74254763823185 0.52264343961059 0.76691423459519 0.588312343359 0.74975918321609 0.20579529106305 0.64687140841087 -0.31312509503839 0.22344961411771 -0.41596235268004 -0.40507689085446 -0.042494455575152 0.41748927783623 -0.31640348326886 -0.2519693743878 0.33803721799326 0.49127924409676 0.18938196681324 1.2788727289364 0.38969721342078 0.47268264590341 0.063512708361095 0.41930176345733 0.013323268266993 0.26292622507158 -0.10845606241409 -0.028212564846774 -0.098324850507832 0.024191921692476 -0.11719502843288 0.44760357643208 0.18688149612582 0.69038792544825 0.4177158244665 0.5826446365713 0.48592046610331 0.66436660113231 1.495517972314 1.7619295794337 0.92388740826526 0.7487934821239 1.1601899616087 1.5075604037353 1.0397985873184 1.09262196403 0.8286670400494 1.8020802903824 1.4854647616235 0.96046735932082 1.2762235941951 0.54922833420148 1.4783989302241 -0.76601872715129 -1.3260390802592 -0.83558628863349 1.0453682888022 1.0086342781335 0.60935230944136 -0.13566080082567 -0.099175908429781 -0.17354005935538 -0.36164860934831 -0.1761008102233 0.2129782961212 -0.14376482039066 0.61466318634351 0.66648461137164 0.55215790933629 1.1188794216145 0.71116206996919 0.49080886566435 0.70161959583548 1.0956140811502 0.89393423162763 0.83720623169639 1.0772341122298 0.72877904201665 0.85725354441688 0.69044916215263 0.84699064123939 0.8714526277323 1.6134463132244 0.80246377755838 1.3059830564149 1.7737259721293 0.67892938156765 1.1138997032318 0.95407112818336 0.72138567914237 0.8964421240998 0.78163069342455 0.54226636396324 0.90850933306981 0.69962870376036 1.0800932527656 1.3015582049955 1.5869675441945 1.3135550918393 1.4366229934602 0.12097854608953 1.4860892611392 0.35742571354748 0.14629918112174 1.1488044481569 0.34626278459261 1.5468699928801 -0.072106502252803 0.97821998199191 0.83821489455772 1.0083207194901 0.56120921344156 0.98296681764187 0.021572983989162 1.04944630933 0.65318982630675 0.31949532444219 1.5390063135541 0.26051968448347 0.36922359856725 1.0050777399333 0.91018731670811 0.70810601147084 0.74705137074445 0.70351745348706 1.0775295107047 -0.76604615347481 -0.96187732886727 0.19990760812438 0.010573005380936 0.25390713437677 0.25857429175691 -0.073688929926668 -0.060189479425093 -0.16011321124797 -0.13524755881486 0.14298243527864 -0.0010642525527479 0.27353501239125 0.067808067210025 0.31074519837054 0.21933669141379 0.11845993739508 1.7583649591496 1.0963124297716 0.90042647792214 1.1992481269814 1.3668724427202 1.4081204115725 1.1201513249913 1.1202389097937 1.6783344665588 0.95873311088272 0.86082113393137 0.8768102118048 0.93165196337393 0.92935449815125 0.838909438199 0.74614151051727 2.0649508063046 0.65564617716713 1.6353629486053 0.81469832945035 0.90283417541145 0.90674449117511 0.9207979221711 0.358997876148 0.59622809622946 0.50395724924195 0.77568679405926 0.93241245444321 0.72363806008269 -0.20955807680422 0.042046387852358 -0.099906116179358 0.34757355150262 1.2174344461214 0.94208275930111 0.71610204911556 0.71946803952548 0.68969273392713 1.092394178658 0.90963336991932 0.77301397064565 0.89331375764143 1.120474124241 0.64597410764572 0.51153680150935 0.6451450834624 0.64566392960927 0.77859249080454 0.72705788171526 0.41665240300012 0.49273925413165 0.41164879253739 0.60302188558685 0.29464878964213 1.6519257264849 0.69572621555745 0.86781874646049 0.85065151815532 0.95411655876723 1.5297168736277 0.95844812111094 1.803493026592 1.6998258087749 0.63554259138059 1.0485896973025 1.4350479947034 -0.0044147856926404 1.1454934822878 0.5560147884136 0.93078830267039 0.94181640480726 0.6219050685195 0.48982832263845 1.9537137623247 0.24160639283127 1.4286654007219 1.0482311278338 0.48348269442454 0.50604416107406 0.26620217619559 1.8651003348102 0.94579007937773 1.0734435612342 0.94751039472219 1.1168476768575 1.007846431482 1.9290876108302 0.9978424423282 1.1904957445233 1.2747956849887 1.4931290548763 1.653311340698 1.4123830489581 1.0625438866851 1.6276590471598 1.0389755787151 1.0380815682304 1.5720752344955 1.8910386931502 1.1348855757362 0.47511629523643 1.583707533552 0.60692634834572 0.29799210789345 0.2105401131432 0.16617718004422 0.1967151642265 0.41658708928154 0.52754486905737 0.4335190454242 0.4647462963482 0.56345742276401 0.33941768251827 0.58521191475411 1.0001827928755 0.60414582320395 0.41647651564758 -0.31288152079678 0.51946417093638 0.018446613303609 0.67173214878306 -0.24581260874642 0.22559882599186 0.20036125098203 -0.2466340729172 -0.31805561343855 0.15269909173502 0.20132586674309 0.34298457227885 0.292547364505 0.18423779304322 0.3742372194988 -0.32245049939197 0.12605966015249 0.47469760459841 0.47180307272614 0.041636814960128 1.7507583547633 0.53142370053009 -0.19048953968033 0.033842381031075 0.43687332537476 -0.41887535929268 0.43467962986097 0.084891582034531 0.35289778861329 0.041299943864614 0.17928574741565 1.0399417151863 -0.46568542394491 -0.3697097046242 -0.35970266298623 1.433150625294 0.42113570797591 1.3625691365449 0.093935620135747 -0.55983249019994 0.63679430682705 0.50501717355161 -0.33001168128544 -0.30421295367419 0.53366542299907 1.0367584455436 0.11025224832067 0.10741245168403 -0.048283064680156 0.68840669562903 0.677404763513 0.13790745206118 1.1161698588487 -0.27697380185478 0.60685856627269 0.81550004867535 0.5772954898604 0.67584724751801 0.84504339590584 0.71271110138654 0.48820303200456 1.1187187557769 0.57108070815582 0.86222142959277 0.81793749361999 0.71218968385269 0.41184677727346 0.61462811507452 0.47309542200591 0.37621204945707 0.49260236466772 0.48738873579231 0.18471583728307 0.44035074941435 -0.28267491368687 0.35117581400543 -0.22665936345663 -0.30302734944525 0.22043154918421 -0.1773781425263 0.44040209674719 0.49746648260645 0.035901515007233 -0.094817303343023 -0.11332204240777 0.12879609333732 -0.0064104080132295 0.5510911175192 1.1483242075344 1.5765597124473 1.0770191562186 1.1272225401296 0.97733518584587 0.99622593262103 1.9117924567659 0.96527653668787 0.97342574758352 0.52083174804368 0.96762104454295 0.9313259554947 1.7572924293132 0.82091324457989 -0.22293672776589 0.70450966096166 0.11031609142617 -0.17302277790003 -0.035739827247365 -0.46140295636087 0.18659098050959 -0.06242668516149 0.83900957167751 0.95842676056572 0.093348626322062 -0.57124200841864 -0.42540784413415 1.3987719257258 0.80738678551704 -0.58045442194963 -0.67456846605682 -0.050386318052577 -0.33211389037273 -0.84604682750458 0.97762460043881 0.6915213734424 0.73032956336141 0.92349374702418 0.97210526105909 -0.47044450520983 0.87647970893951 0.89977014470079 0.51922409484765 0.86344352443036 0.76687594640467 0.17732423380899 0.014752366489016 0.95102649878495 0.92556311197866 -0.17944846096415 -0.24733805991648 0.84612749454038 0.71136116530031 -0.49114597960478 0.7804788646984 -0.82953303744509 0.53113945412656 0.86939055225867 1.6035916786153 0.88201617895054 0.8833632467171 -0.048981388475405 0.86198254517221 0.97839182553369 -0.35754487061294 1.6450015125016 0.93143509148089 0.9036675113196 0.97931713597678 1.3022450896201 1.8762254289815 0.98701171902036 1.6284209677348 1.0398072129589 1.0609243775338 -0.27775583654768 1.6261067650778 1.0965609423962 1.4555131615986 0.65982983029654 0.36690601247075 -0.62871380528817 0.061142567294595 -0.71071082475115 -0.0034276211928475 -0.18919684703578 -0.72245406072843 0.77253133023206 1.0049305862299 0.84721607611616 0.68712853618696 -0.19558480217957 0.91978024077661 0.57236678799353 -0.70007813452402 -0.56298979860186 -0.19570855064142 -0.13577764787386 1.3181954610111 -0.22196449330951 -0.66115746572427 0.13550547039094 -0.56042690161056 -0.34576659137878 -0.070112532408015 -0.53168425168892 -0.3846193725546 -0.41273587509376 -0.18110079281771 -0.22469348145021 -0.71582173153126 0.86277845216299 -0.11273477869746 -0.023726180448616 0.10250316762691 -0.60757453971259 -0.807661453965 0.57764083026016 0.51886959201444 -0.67044471157794 -0.31656020140171 0.34741946287541 0.59868434811914 -0.69627237842644 -0.55421308691941 -0.052283767691716 0.44357143093468 0.32122383047966 -0.1698330625062 0.47302067742168 0.92770665805827 -0.34169133274214 -0.53147232645165 0.94889042292445 0.68714774749819 -0.28895596616816 0.30210968057727 0.84340922316645 0.97065668880487 0.67993754289447 -0.35767549813486 0.83476738270058 0.87382405641235 1.0123576716384 0.71237169220218 0.10261968682718 0.92069878814207 1.0285464661475 0.75811686053408 1.6817639752804 0.95618445933089 1.0118928159814 0.97050034437411 0.4975305010566 0.81363120570733 0.86664247449664 -0.18962229325506 -0.20283129214673 0.95023741732853 0.3382714722872 0.42993866044759 0.91165320311111 0.76118477842631 1.801494117362 0.99143742200867 0.85308458215332 0.91880838218247 1.0995792486916 1.8429695758005 1.0096009752932 0.99316546991012 1.391625513961 1.7000558710612 0.75462184366427 0.79242061937792 0.73815707951271 0.81389412901017 0.95191158694345 0.9308748701082 1.0907832718528 1.6376770822466 1.101056773765 1.5038938657513 1.4061736342003 0.93246936256976 1.0505419031929 1.2423198033251 0.65767220269584 1.5165730937983 0.99386469095917 1.8761895389676 -0.10757639708683 -0.33905612816186 -0.04223735345614 -0.29379733834015 0.3164950148321 0.30920513881171 0.059761980968102 0.073208889703843 0.0076006191404563 0.17659929224527 0.28139383623152 -0.20162070993437 -0.26780053420863 -0.096925086147383 0.35296972475052 -0.1189708914183 0.36520906091241 0.1834411560691 0.055766961109587 0.134518793595 0.14880571549225 -0.12175363836529 0.027246655230612 0.15610164812598 0.096976559932574 0.31566538220237 0.35131012619752 0.53274303121292 0.32490459639271 -0.047281815525215 0.30360541748135 0.23349824798017 0.021725100996379 0.13527548050683 -0.10143788898904 0.047911811346099 0.024572557225136 0.34014809120872 -0.045598064865625 0.82438525885175 0.63747913632661 0.85802742822317 0.42351211421504 0.10689058011514 -0.046218825240395 1.0269290702672 0.56097259175878 0.88639360573519 0.6019026191768 0.89787632709251 0.14148777817048 1.5029866441752 -0.317902363817 -0.3026819418147 0.76114735451655 0.64747335339444 0.6566007285414 0.5979502002051 0.69793810871481 0.32210122965457 0.7329206217556 0.59162574261079 0.77610168793828 1.1436791705828 0.62952977143764 0.17151863764846 0.72885392544441 0.89677260313668 0.75158054779571 0.35589367988259 0.67910392276128 1.0675772720365 1.0520763378198 -0.16631508666826 0.8676351984453 0.82732563646454 1.2468868871005 -0.35641382539867 0.9264766242705 1.2316467598473 0.68656379404493 0.82304448660146 1.1055597326779 0.77583339320924 0.86972146710649 0.72404856875016 0.30286315717068 -0.076853647217152 0.70344796695765 -0.0083220537299211 -0.31266970868504 -0.20301242655138 0.97297427784033 1.0387082434581 0.96030554152231 0.81873602715677 0.94449718967196 1.0593781212168 0.83433139158181 0.44243767430141 0.41256630649667 0.87779837046954 1.00337429982 0.87946336501904 0.64497910391251 0.44847692563592 -0.4848321911834 -0.22416847451514 0.17348713347926 0.2927497500531 0.60658927977046 0.078571122138842 0.15094419324303 1.6060119893584 2.0725083415179 1.957180709947 1.3194094349432 1.1625219329034 1.1540710637677 0.99916218056945 1.0682228202885 1.6417368596036 1.1608736887892 1.0545435421416 1.0276261703177 1.0422601339486 1.0282055579323 0.99920853071467 1.0073705461603 0.9715995254519 1.0622140378442 0.98396161000704 1.0039668183929 1.527624017585 1.0404112757607 0.92520145680439 0.81771322525035 0.75706094962455 0.83006649236082 1.1889326455315 1.088211047013 1.8368773481414 1.3748017088447 1.8244003868621 1.0696996100208 1.3588970622437 1.8376956179594 1.5873046572976 1.2799256538717 1.1674360970283 0.80701872392376 1.4840615845922 1.4213037590465 1.1160007997281 1.5567852121347 1.2882082114902 1.6801375108881 1.5762890990463 1.5134363975583 1.340142729606 0.87708166454817 1.0798778283398 0.84093000714069 1.7103214721461 0.67674953496226 0.9303404400939 1.2423094580677 1.0627018138356 1.5145923500705 1.4754269380609 1.1367424503014 1.5340484442857 1.0445648760024 0.96378049454654 1.84689907239 0.70093006358764 0.85127894847407 1.0951339137574 1.1016777017218 1.2316275791779 0.79892993295544 1.6473975960969 1.4792507192689 1.8524400969927 1.21399472542 0.72555056891219 1.0963286746585 1.4857475734652 1.5479072467475 1.2363906513086 1.521164055763 1.7962146272871 1.0142857871325 0.848680955185 0.81998008333754 0.88687695363322 1.8359289893629 0.83086336208179 0.71524995470721 0.8371596678631 0.9713977369817 0.82471608834349 1.4861477611196 0.7009409505691 0.78203059721533 1.1370362192286 0.50829971949036 0.61159393441396 1.123197209855 1.0219730803889 0.77539225812188 1.6567118635032 0.81385498477973 0.81138425000796 0.65565493790895 0.63797717134819 0.56501050386622 1.3842318357225 0.59947665613702 0.60358727767033 0.26559732207541 0.55694023180226 0.98612198329383 0.82149946622595 1.5101875842814 0.66316654713109 0.7648659569306 0.19662362740558 0.27150031969407 0.090257612308696 -0.061412734253071 0.78567799416691 0.67694011767073 0.77070264915351 0.73555899910093 -0.10561162326526 0.049113221788523 0.53809050476899 1.3283507715803 1.0503143237271 1.6824039489539 0.78349979956548 0.79357257885226 0.81873699647935 1.2979716123982 1.0866740111046 1.0465691766659 0.95284355877362 0.63114989743008 0.56673620855558 0.99348026803207 1.5041924505259 0.5488867475487 0.94027256968607 1.0167134037947 1.2636522383273 0.61771786293365 0.67929354765738 0.92052919256294 0.64096274760135 0.60449644694984 0.19915072120613 0.17871491850756 -0.041381204075194 0.088310740640145 0.36290786773831 -0.098136821082547 0.26559360413476 -0.036771492828383 0.016811081136756 0.15881663620616 -0.14376861033183 -0.063556493000611 -0.032125208447795 0.20981779580747 0.25299808588634 0.018468950452234 0.24211347142806 0.58054430530761 0.69590626990026 -0.069555742076555 0.016135343873958 0.061978417074294 0.63204541526794 0.23570598548817 0.48651816309133 0.65318983668376 0.72534490855226 0.73022554155336 0.67996851361628 0.75139946995349 0.70370193562507 0.54716094747152 0.68337674523386 0.71531784632682 0.76781592348137 0.65209853050963 0.62626009695752 0.69007224235543 0.40340848957267 0.66391834030186 0.58372230345672 0.70774276729503 0.62799303896435 0.59351248936274 0.031688285003015 0.33300089902605 0.34619989911576 0.62162471356497 0.57248513834696 0.31507464123856 0.32096063872042 0.76221605541399 0.81006226085478 0.53432048295836 0.58245909510321 0.65532907667134 0.74969652035547 0.24267334363527 0.60370032887481 0.83180396049868 0.69583809965035 0.82702876240876 0.77459653170908 0.85957018949939 0.79883220452013 0.70865142278432 0.69284343470545 0.71640591534352 0.58493066136702 0.72409713983804 0.55884823734502 0.5846276765792 0.64462647934265 0.19711717271573 0.18259892510746 -0.058249090503831 0.055176783404179 0.16727845020385 0.20789254638133 0.24892699462242 0.11637818874378 0.0047163247091576 0.20033342155988 -0.073518688617424 -0.1519417259684 -0.04551376840198 0.27957676871875 -0.027244357330009 0.33229232809362 -0.057139026985837 -0.060430325978307 0.22511344905174 -0.07836969295174 0.16865082646959 -0.32072336321682 -0.30159494668192 0.076615141542068 -0.031551430307116 0.22745441250194 0.16413416171074 0.090668887665403 -0.18003330406354 0.24812766831337 0.033649293007278 0.64987592872069 0.0069083462192531 0.6787336