# vtk DataFile Version 3.0
d-2__ created by libgimli-v1.4.0-22-g2d6c0250
ASCII
DATASET UNSTRUCTURED_GRID
POINTS 739 double
35.25	0	0
34.766081542978	-0.82021566092004	0
35.632578047987	-0.72883630452407	0
24.024974223709	-3.3959938323052	0
23.653360812241	-2.7288670633191	0
23.229010511392	-3.3529576731171	0
4.0418655321018	-4.0506862785614	0
3.4460515782386	-4.7439961566826	0
4.2311515920029	-5.0809003825016	0
15.407766344465	-7.3730645449994	0
16.233299169082	-7.2585920105004	0
15.614499752591	-6.6705036155538	0
0.87966150056611	-3.868344094725	0
0.53946997502051	-4.5402672655454	0
1.0423668045247	-4.5416868935558	0
10.044780655634	-1.38528895599	0
9.2449702923403	-0.85837555044783	0
9.345362148561	-1.7444613449413	0
9.4404614270197	-2.4142126442597	0
8.8670364751027	-2.2005241160204	0
8.8981197610435	-2.9065452242835	0
40.643431096227	-1.8007378109998	0
40.90951054121	-2.5500139899776	0
41.411624169268	-1.5999858451814	0
30.395367991702	-1.9693062955434	0
29.554682165597	-1.8859186953224	0
29.759185494429	-2.7694853144209	0
5.1523452594718	-5.0731882456395	0
4.7333838933121	-4.4274311535604	0
4.8293365853565	-6.5416884368369	0
4.6531391287001	-7.357849878802	0
5.3618836946219	-7.2453518540761	0
2.420340802333	-5.9803755969777	0
2.2095578170366	-5.1629239562001	0
1.5749245865607	-5.8280971878667	0
6.4631285840114	-5.7234774575293	0
7.0614370368234	-5.3339000067243	0
6.4310774709665	-5.0305550495624	0
6	-8	0
6.8149088859959	-7.1369339193422	0
6.0380890087879	-7.0593430649453	0
2.337095399571	-2.7024130282098	0
2.4182611852565	-1.7461085668484	0
1.7314028473745	-2.3660256592611	0
4.7120578677277	-5.728342736769	0
4.0027109767498	-6.0857371454819	0
5.6471126438986	-6.5176179037	0
5.8650720782736	-5.3997839601918	0
5.3575291744975	-5.8713437985688	0
8.8206498418204	-7.3549687861435	0
8.4413342175328	-6.6552453659709	0
8.1531633313928	-7.3876617519353	0
5.9380884743294	-5.9807090902451	0
6.340105930545	-6.4315959866684	0
4.0658421990741	-7.0053381340916	0
5.3593802187152	-4.2767652155575	0
5.858312820725	-4.714231643898	0
3.5539747292485	-5.4650356113086	0
3.1722088864894	-6.0889775775066	0
4	-8	0
5	-8	0
4.9041715027695	-3.6404381370114	0
6.3841275467394	-4.4206981320864	0
6.7082817957996	-3.6916407749453	0
5.9717371155479	-4.0622525356292	0
10.455786908479	-7.3899923003538	0
10.069732056581	-6.7108805202894	0
9.5950164365213	-7.3631486063629	0
2.7298127856572	-4.5788385214117	0
2.0726289944547	-4.3946730213117	0
7.1327228036634	-6.1871299893166	0
5.9922272054042	-3.4924814834306	0
4.2186757807963	-3.1085730056651	0
5.5515996961085	-3.721657217286	0
5.5244600938001	-3.1299237043516	0
2.921729566446	-5.3311984568052	0
6.9648131056334	-4.5768127754969	0
7.6649814503624	-4.8682074785256	0
7.7420202437717	-5.6148710814956	0
5.5676567450914	-2.3292148446412	0
4.9222559921608	-2.7486617302843	0
6.1971181697204	-2.8540900672423	0
7.0212731257583	-2.6573891139302	0
4.0890680178231	-0.80500860446348	0
3.2172049700142	-0.97874737870402	0
3.8193790308275	-1.6629755476804	0
8.3416777787407	-5.1833881033199	0
7.5572275114128	-4.102709076165	0
3.5794694184609	-3.3774522548669	0
7.6088637440976	-3.3061553813084	0
8.0396305197243	-2.3832345250595	0
7.2501992898856	-1.8315241352993	0
7.8258608922489	-1.346118462439	0
7.0328259049448	-0.91494393004697	0
6.369261658854	-1.8257400853179	0
4.9672453990647	-2.0402364640941	0
5.4220884530876	-1.389640384905	0
4.5794425818972	-1.4753994016058	0
0	-6	0
0.75115345976489	-6.2921750472139	0
0.77632627405085	-5.2976449958587	0
2.3034188316378	-3.3286511292171	0
1.9431807852442	-3.7381185229599	0
2.5260903249391	-3.8678537932067	0
7.8699182234219	-6.2360358230764	0
7.6542578277896	-6.8451202459774	0
8.2655479110563	-3.2088163092203	0
3.2040934351226	-3.9685105959404	0
0.734375	0	0
0	-1	0
0.61443623639171	-1.1818049446663	0
0	-2	0
0.52853507360799	-2.6508136276114	0
1.0036880328999	-1.9729809919743	0
1.8146822935359	-3.1226852479236	0
1.4514208372378	-3.5701769998337	0
1.5278007240401	-4.8942112229174	0
0	-4	0
3.5512838533278	-2.5599597745499	0
1.4868063674291	-4.1631811125537	0
2.9034746231188	-3.1852042312138	0
2.8721321228156	-2.4183325865144	0
4.3412571586717	-2.2647172445937	0
2	-8	0
2.6659100987264	-6.9662786892768	0
1.8544139966028	-7.1043716111303	0
0.5079131956491	-3.2995937075409	0
1.1307352897668	-2.9800868127229	0
3.4693050880931	-6.6981202008635	0
1.6868535240114	-1.6376438628027	0
3.440232320933	-7.3347847410184	0
3	-8	0
1	-8	0
0.61268418967956	-7.4660603407378	0
0	-8	0
0	-3	0
4.8535502314262	-0.7073385918545	0
3.1733778454903	-1.8751252197409	0
2.9375	0	0
3.671875	0	0
4.40625	0	0
2.4330107061784	-0.73760748326961	0
1.3333015130559	-0.9315959698365	0
1.8766050689234	-0.56293537948883	0
1.948537503014	-1.1293433308992	0
0	0	0
2.203125	0	0
1.46875	0	0
6.1316050836961	-0.78450548287625	0
5.484535700698	-0.57615159438342	0
7.7277917280599	-0.60111054434286	0
8.400860817486	-5.8876225358776	0
9.5630097790906	-2.94368847844	0
5.875	0	0
6.609375	0	0
8.3805420158992	-0.72883907306127	0
8.078125	0	0
5.140625	0	0
7.34375	0	0
1.9753969304143	-6.5108597214121	0
0	-7	0
1.3689252361078	-6.6773065404534	0
1.271866542911	-7.3681658699021	0
0.79843667000352	-6.9610346280904	0
0	-5	0
8.0934491987285	-3.7402798363746	0
8.3526223075714	-4.3862968716516	0
8.8812932222946	-4.8495908353712	0
9.2495369766643	-4.2685648122416	0
7.5241925852712	-7.4735725008744	0
7	-8	0
9.0708714075818	-5.4858233310482	0
10.678386559089	-3.3272598792468	0
10.804571464251	-4.3307964217889	0
11.41891875058	-3.7351133902904	0
8	-8	0
10	-8	0
9	-8	0
9.2512683726635	-6.7158200190867	0
8.5	-8	0
9.6398646977454	-6.0569476299073	0
12	-8	0
11.701190691715	-7.0178795707848	0
11.202571672499	-7.4461441005432	0
8.9599697063497	-6.1597869948541	0
11.233165938823	-5.1597635949138	0
10.502612452147	-5.0816627650991	0
10.624270039711	-5.9297050009808	0
10.875476750227	-6.8176234265893	0
11.297502262295	-6.4093708180867	0
9.4009670005084	-3.4945762481523	0
8.704031409935	-3.6771790743333	0
9.8711091463184	-5.3516531775058	0
9.4076131337331	-4.9197440922233	0
8.6148589807278	-1.5468768747086	0
9.9767463500217	-4.640261707511	0
10.015519359214	-3.8912900484212	0
9.9562334753365	-3.2602198917368	0
11.542293243434	-5.8727156156799	0
11.533831101922	-2.9603017492445	0
12.154184826355	-5.3073953175186	0
12.205039694262	-6.0302968717877	0
12.565653848073	-5.7317611342705	0
12.283650708161	-3.5816924475913	0
10.110157211253	-2.637865210986	0
9.8587877567004	-2.0420494257341	0
10.28125	0	0
9.546875	0	0
9.9649662999966	-0.60627195995189	0
12.70465236974	-4.5100365304716	0
11.770287658143	-4.440650932946	0
11.617832441555	-2.0064323806666	0
10.859498247607	-2.4328581497823	0
8.8125	0	0
10.705622488639	-0.78896034843682	0
15.06553672398	-6.276028353677	0
15.680974072729	-5.7849759373399	0
14.632715739621	-5.6685994613595	0
12.365976924043	-6.6743633558583	0
11.813005918224	-6.4031309146134	0
14.38647420984	-4.8199859379677	0
14.194804380357	-4.0595150993604	0
13.597094220068	-4.6359830373028	0
12.293397764589	-2.6540853557846	0
13.34178425423	-3.6968226496998	0
10.821707318997	-1.6462338807521	0
10.342661210516	-2.0275986905901	0
14.010238366691	-2.1919402828937	0
13.55729974309	-2.7484698825173	0
14.240137580401	-2.6619477668096	0
12.917051988236	-2.4369691973858	0
12.879625457607	-3.0259697333822	0
15.191535490918	-4.924313627692	0
12.484375	0	0
12.086565658987	-0.57709382902849	0
12.758125436677	-1.01796672845	0
11.96236122703	-1.2284582090393	0
11.015625	0	0
11.318264939988	-1.2611066042886	0
11.475466841094	-0.64060339861446	0
12.852009680744	-6.1773420833061	0
13.072225890854	-5.405038899661	0
11.75	0	0
13.886294673494	-5.3329592763524	0
13.758879284747	-6.1456668635604	0
13.226726949397	-7.0485511502546	0
12.486647683567	-1.8707614222818	0
16.082690019272	-4.8838028544159	0
15.588249595521	-4.0858229696258	0
13.21875	0	0
13.352540526941	-0.46325628238061	0
12.45258115371	-7.3503371603357	0
13	-8	0
14.832628878105	-4.3011594131318	0
14.166838931635	-3.2806882428375	0
14.837679056872	-2.8631337404129	0
14.652463129072	-2.1856472856178	0
13.572273204992	-1.0938488821995	0
14.257450469287	-1.4834733391051	0
14.136499103215	-0.64728730968009	0
11	-8	0
14.906932583358	-6.8595391989725	0
14.50530276564	-6.3880454815302	0
14.180657895825	-6.9822987629868	0
14	-8	0
13.361788428331	-1.8441238959815	0
13.953125	0	0
14.860489128315	-3.6273128087287	0
15.023516208248	-0.78525331169581	0
14.6875	0	0
16.433738536114	-4.1591436718784	0
16.8292022244	-4.7493086727781	0
16.492671238228	-2.7570829143144	0
15.55378227869	-2.2395328783323	0
15.583809923027	-3.1816603901125	0
16.41147786877	-1.8589837305121	0
17.312602990133	-1.9876176433335	0
15.06680452402	-1.5886399739304	0
15.85107129564	-1.2339717480057	0
16.195600797192	-3.5412022318805	0
17.114058842164	-4.1917737383704	0
16.896094149161	-3.5575267671562	0
16.811448977771	-5.5938104794507	0
17.491952228104	-2.9614820164517	0
16.15625	0	0
15.750627365419	-0.51721425022099	0
16.30045814652	-0.5635762108592	0
15.421875	0	0
15	-8	0
16	-8	0
22.756862915706	-1.8570017610221	0
22.344534171134	-2.5456024048519	0
22.969878419642	-2.6472927337462	0
20.044005905968	-2.534398285706	0
19.517693861884	-1.7376224821256	0
19.295726866527	-2.3913520544351	0
16.40676546016	-6.4555129050585	0
17.018238820229	-7.033983679535	0
17.634670927242	-3.7791145708047	0
18.858048753151	-0.56694169011229	0
19.09375	0	0
18.359375	0	0
16.853086776378	-1.0597567726391	0
18.167541581048	-2.4176717555584	0
17.627135722909	-1.2162305966125	0
16.890625	0	0
18.803920155665	-2.6260600115479	0
18.805716510343	-2.0028710992174	0
17.596801646645	-0.52497032841282	0
18.243386992724	-0.86293430039319	0
18.167765680984	-1.6205595504649	0
18.884682322029	-1.2506979597346	0
19.738008291269	-0.72929214829284	0
17.625	0	0
17.30462052823	-4.6267683525864	0
20.055946740925	-4.2871034324514	0
19.251021539757	-4.0538766602334	0
19.724539057624	-4.9713633198339	0
14.698061916436	-7.4441215935864	0
17.612789726548	-7.4211394446211	0
16.96875	-8	0
17.9375	-8	0
[...]
CELL_DATA 1349
SCALARS Coverage double 1
LOOKUP_TABLE default
1.4315477811608 0.59915105671527 -0.10278883979474 0.31603631038161 -0.26651339074092 1.0581860586232 0.70323356928142 0.7743629811417 0.85504050871026 -0.10971902459449 -0.24659730556563 -0.021856511589483 -1.1952259646134 -0.077681341507883 -0.67469192293857 0.55652292712627 -0.1392683305426 -0.37522333636559 -0.14129336365313 0.55178599354593 -0.15316196182522 -0.70738042114197 -0.16791047464678 -0.086979849034521 -0.095564242489841 -0.16492340486031 -0.39592317385799 -0.36291113612364 -0.098426783891474 -0.39869785036631 -0.087928167803549 0.084872078684969 -0.10942811448083 0.017324206136392 -0.18153338107108 -0.1762084019659 -0.30184148218355 -0.21865104108119 0.29032145465203 -0.29723745260737 -0.47245403505105 0.16688233475296 0.1579482943116 -0.64314400999104 -0.1007195022318 -0.40442822915587 -0.34784969373977 -0.34260298542126 0.43609477491669 -0.041506514039419 0.24724509279237 0.18436748941259 -0.12236627317598 0.20039124054481 0.36360947849469 -0.41744551284502 -0.077194793977876 0.049238659255778 -0.23549546401842 -0.011638200995028 -0.17550305708425 0.17906867070236 0.17331650667006 0.46485111899952 0.33559509881041 0.4082367474778 -0.28715116601133 -0.40510170207059 0.6163295783159 0.40503095758559 0.91673821767872 0.37736899597652 -0.33802476923916 -0.56214863746242 -0.10333091176455 0.27958929075531 0.34279368800955 -0.31875427030976 0.67482751628303 0.95670001860425 0.56237861714358 0.5120733502614 0.60743562967603 0.50330347255194 0.58986432581775 0.83520525183518 -1.1095861514188 -0.19122042111055 -0.72390555165345 0.68949408051603 0.11710995443871 -0.20465527929889 0.78367085951868 0.86450895685918 0.40781170506433 -0.19840781557877 -0.26836239842676 -0.78461140923205 -0.24692382220276 0.41806480972872 -0.47540736020805 -0.8521883581242 0.43073665274876 0.81777312627351 0.55063103226494 0.49909612680051 0.807143823401 0.4127813461433 0.18724389842275 -1.9563560733817 0.071885615671378 -0.030814100820427 -0.015758955274604 0.040431355075968 -0.44620487192692 0.43300016210815 -0.57565690087243 0.50999174901529 -0.20762238786587 -1.2190869232347 0.15402859075696 -0.78532703466506 -0.44896363062567 0.6429297890447 0.14065370697683 0.13400847904566 -0.52096790496448 0.72638211018825 0.045759608008407 -0.24066858131841 -0.86850393985962 -0.13293997274957 -0.19991106101297 -0.39943965044937 -0.6940817430477 -0.55111326931832 0.46956085244678 0.45016034928458 0.77894311467 0.18462475526502 -0.68371469605642 0.22526061096566 -0.80245331351541 0.85114848246628 0.68628271618032 0.6569797232399 0.48872893814361 0.29510908287659 0.64831374970174 0.98190265087747 0.46168381901582 1.4770854255614 1.3163071759176 0.94440515595506 0.75402426637553 0.94801622711868 1.102004407278 0.84134449635937 1.0020015004668 1.2305267930749 0.69777457913676 1.0372735877619 1.1821131483762 0.89945788059343 1.5171453699539 0.95027987653382 1.0603789358648 1.15736712153 1.1829496679165 0.9437941421913 1.0525939759175 0.63280067046812 1.2212281991706 -0.45183190069879 0.67593375196455 1.5466585490891 1.3542854371999 1.3558156779921 0.18059364974166 0.11893697443392 0.36678849964865 0.35147761954859 0.84568971643832 1.0157065183589 0.95020289667618 1.3628413835873 1.0654129001936 0.84473224354971 1.7645637587597 1.5824872799515 0.89938401322683 1.2924508725309 1.3243186278156 1.4181741390437 -0.35729542552508 -0.21793683695733 -0.71150712527217 -1.3503026235274 -1.5160993106246 -0.4931232659425 -0.48629118412549 -1.4880369785253 -0.77728772403086 -1.5117354536073 -1.9568512886295 -0.89559926428226 -1.7674378594214 -2.0558525366606 -1.4412544887071 -1.470179494302 -1.1254498312964 -0.98299785007381 0.80430709443358 -1.9755115194214 -0.28337907712967 0.66382686483828 -0.5930889286078 0.46110396039294 0.46075829506789 0.73289850780021 0.50737607075082 0.64284463085676 -0.9912999041027 0.72416927527534 0.59365678698381 0.64146887291358 0.37356606595704 0.077220815417896 0.12456696113665 0.42817127550915 -0.24167054135379 0.065953944311939 -0.65891897303045 0.079809167512581 -0.76451216934011 0.050849299024196 -0.40686191190355 -0.37719876776869 -0.66151955366156 -0.16491878908818 0.4131669562982 -0.74746327095494 -0.4684470674268 0.066768586787908 0.35552885706932 1.1212275828921 0.64434665673979 0.95593444016349 1.2034210401039 0.76758628513829 1.1375403486032 0.37359573781006 -0.3281235749395 -0.040440512211151 -0.23580090359627 0.24624252382187 -0.48080042506703 0.17969521132006 -0.57482959877301 0.57639664857805 -0.40737372029529 -0.22815703551672 0.63985971004418 -0.4722448733629 -0.28602928371809 0.53629001972925 0.50369826717636 0.60161789262579 0.68273983964445 0.30263192977101 0.64966666124974 0.47596891517089 0.7435677813689 0.039649543740846 0.45969245459838 -0.44326412776949 0.11784106843732 -0.610670980782 -0.49121346803045 -0.090446099228887 0.43702016589984 -0.58618977144675 -0.47818283555023 0.32492415106058 0.61754843161688 0.14707080304043 1.3116303705579 0.46093419368913 0.55329247364102 -0.0078589097513811 0.42245222905435 -0.051642879832726 0.23369743503776 -0.19409320754399 -0.035412432123379 0.043912064348803 0.08803821078127 -0.0737666737891 0.39685239385585 0.24087327434984 0.5818564799236 0.54660759918395 0.66896384186093 0.62487921113415 0.7094946141333 1.4820119782881 1.7227667319092 0.67197702376298 0.7562389621336 1.1482616116138 1.5247498686062 1.0970858054409 1.0937009692917 0.85904948784507 1.7753559047871 1.4821502130714 0.92362044608511 1.196906345878 0.60768797566878 1.4288149536595 -0.80029318204895 -1.7355450747333 -0.91560705251836 0.12853260033506 -0.062991564417794 -0.58525648796113 -1.8107145085992 -0.33190679258547 -0.43971327003142 -0.25810911987893 -0.10858154379487 0.19868766424723 0.063265726352217 0.48529933272878 0.42991220406777 0.46933386626808 0.73358530704673 0.63943042973445 0.58062562315344 0.51458001830026 0.75900806487549 0.92680686819836 0.87037804496121 0.79076271086415 0.85225560634286 0.90620703942258 0.41968257933368 0.83465630758179 0.84547601670597 1.5171143620637 0.79730293683932 1.2888613969554 1.7899937642224 0.73289528782761 1.1299015766959 1.0161162503161 0.75092855261758 0.9120967059089 0.77605432234329 0.672425988699 0.89585360840787 0.66541169988547 1.0524257214087 1.2964019513759 1.5880930166922 1.3116709089148 1.3275280181737 0.20986648361594 1.4664000861327 0.27279503674656 0.2022372697074 0.77491321915619 0.30184293340756 1.52810132447 0.094031079101802 0.64256716168873 0.58665975526295 0.6256504734993 0.35035497790859 0.62966861452116 0.15425937114475 1.0497660370044 0.3579600489485 0.095475900120347 1.5900494091917 0.43016945930309 0.2485083450153 0.96718212692889 0.5617014799549 0.48977470220552 0.69687502839018 0.7779433292046 1.0955060208524 -0.68038298659528 -1.0085937217124 0.29515677835895 -0.051661554351199 0.25984382262573 0.23479592481937 0.12670388088337 0.12515171152727 0.013405373526303 0.051129972613819 0.33777381693711 0.17961846235885 0.27778547644175 0.27211840023497 0.43176290791209 0.43455987503407 0.1297752209634 1.7715418951298 1.0945369513249 0.9097526120187 1.1959708626946 1.4299615214214 1.4584444430334 1.1153510812159 1.1718358277191 1.6181854126956 1.0674333024685 0.91974887811061 0.85611231725925 1.0394530967985 0.82289318979357 0.79451863409121 0.71136138321339 2.0293162549697 0.6211605924612 1.6183984621603 0.57187317955579 0.75278952317138 0.59329098639987 0.55856021813893 0.33080001590105 0.37959188292459 0.31818147766285 0.68995763628464 0.83111437093496 0.70532388955177 -0.27589240763537 0.066079724583601 -0.19749131648274 0.23975396470468 1.2554216917482 1.0885989881562 0.63299519807066 0.74109853928074 0.51079216080887 1.08550300145 1.0526132840712 0.80485433746513 0.95940426725669 1.181223585367 0.37481246205617 0.48818576778821 0.61524603991608 0.60947667327026 0.45830855655478 0.72551249345745 0.31334715854338 0.46469335725864 0.34059561108845 0.53950935195363 0.15790673575042 1.6446497640019 0.56567111137929 0.79154391402233 0.93146106597551 0.92717361725621 1.5025539177588 0.97609180963078 1.7489241765142 1.6909710258273 0.55317241273915 0.96743837226701 1.4468346354429 0.0068544079420114 1.1541290897428 0.31432722368242 0.80452338981821 0.86666453977795 0.59464881312719 0.35563761057696 1.9020978313599 0.16900810407913 1.4058707143343 1.1111850076268 0.37861300538541 0.45403227487352 0.097807040185649 1.8664753055712 0.73281040918402 1.0096684833066 0.78285524990683 1.0820179875574 1.0456400482952 1.887616216941 0.80750482179983 1.3118689829784 1.330471096497 1.4884344431967 1.5782371690314 1.4781424615839 1.0367169632139 1.5806404123453 1.0605150179716 0.99151145126293 1.570464134672 1.8652216196063 1.2622992058594 0.41296576559491 1.5817992599607 0.83035110090433 0.23887296443174 0.22317078898554 0.19939097232503 0.22773217229963 0.38188800747258 0.6491735117112 0.44489507664878 0.39881494870124 0.84008212974229 0.32790370377391 0.50399671011957 0.98809040878898 0.5277543059554 0.35913228155854 -0.33411038454398 0.50024633636027 0.033589386965139 0.60661935668201 -0.31431013877685 0.39330293154283 0.18531521204881 -0.27715037465127 -0.4279530459271 0.18554437432378 0.60315437033051 0.30118128297579 0.2555590377492 0.23604767546221 1.0309982775978 -0.44818288215885 0.20327479900122 0.71583909741263 0.69463839929279 -0.10174288116281 1.6964446596189 0.62224568508063 0.1576247246015 0.71535523524552 0.90684806692938 -0.35163778560114 0.91413566323124 0.53470811955976 1.0957979680614 0.36679149628772 0.23882059406617 0.71757468736538 -0.089345082809948 -0.23813019122936 -0.085625951531162 0.72016066039769 0.66663524143638 0.45753209497367 0.36806698681257 -0.23432396032403 1.0896573093484 0.52598833478131 0.037138632526023 0.0077019686157135 0.25701769234388 1.0381379537724 0.17133231622408 0.35944729858261 -0.14438146755407 0.78378057275854 0.84834535491365 0.47270189253798 0.27751068758425 -0.26064718761031 0.48222351023429 0.76216210767831 0.80532138198648 0.67516254024337 0.78427895584488 0.89564098745171 -0.0034773711384013 1.1236183783908 0.76138264624575 0.7328873351102 0.84507328217025 0.69390209143336 0.40103303364562 0.81384175339393 0.45666059779849 0.52286685875501 0.56547118874641 0.7362416993298 0.13588130834844 0.46602820260632 -0.25315724738846 0.37370456924554 -0.093776619967751 0.051929332611439 0.362819067868 0.01025991444467 0.52803752594462 0.48539789827448 0.32717672425754 0.15441985732116 0.27350868545658 0.43897231341523 -0.091716754570937 0.57149334846576 1.1724312423307 1.5587042506287 1.1568148359144 1.0805187377497 0.97795722705463 0.96102923648794 1.9012832656062 0.89574267168342 0.80914216977603 0.65708541667748 0.99755436119391 0.82002990591016 1.7392020620938 0.67109446530697 0.10034381505985 0.8883594630287 0.030847781965928 -0.42429337136993 -0.0099032717812089 -0.27533676213454 -0.24214009794359 -0.2275360855683 0.44310829928519 0.14304626495784 -0.038056974533147 -0.33808046853999 -0.42310040856164 0.38185964275697 0.069302192261863 0.12999222341814 -0.035557625506712 -0.12835252984518 -0.4234591818804 -0.21068257503249 0.70031728584685 0.44490710951082 0.56106701442905 0.59091656605677 0.73889548667873 -0.35274736444622 0.81268574122764 0.77540857635435 0.52940080124598 0.78040942922311 0.86233871146032 0.38609335465792 0.029229523855956 0.73235483653355 0.78053609623852 -0.010182466157645 -0.065685251455908 0.69624751970412 0.73877912067054 0.079280886833453 0.46097586672228 -0.28264820403441 0.48231017666167 0.59356333168016 1.5831143699997 0.77422067124154 0.87088444675204 0.10772129729104 0.65437181246573 0.88594574623745 0.14613809883291 1.6334845611283 0.95392703137981 0.91523975761363 1.02107405263 1.3233691692687 1.8337738214301 1.1042290319696 1.6249928727325 1.070831332645 1.1178499896031 0.18682305227877 1.5885218447732 1.1507533529762 1.4263843982775 0.60260839279307 0.49130277324578 -0.19098233493291 0.47765788686638 -0.30388227888146 0.45136397829977 0.4090729515585 -0.33133673491971 0.56672891376441 0.86288080428072 0.77544813220389 0.42813548576125 -0.039064809444115 0.81319924581611 0.74745816075567 -0.42528325444447 -0.25629048540048 0.063115691323913 0.23433058264865 1.3329935556549 0.10223535458389 -0.34692086454214 0.36704124142036 -0.42844419367059 0.00091467837765065 -0.026190700168437 -0.21834752055634 -0.16116665627944 -0.31606185515384 -0.45204902318415 0.083663528463632 -0.32428956323922 0.75268419085988 -0.0070568733441185 0.16109201209042 0.37517824991657 -0.32587436209056 -0.20499732300716 0.7018786904659 0.54813629694725 -0.35613742941182 -0.37113153415202 0.39242776751964 0.3454083289857 -0.2452065301351 -0.37009334121773 -0.10977092249674 0.26149668799125 0.3284860673029 0.0056204982726068 0.62248147293766 0.86637548276126 -0.3173103770392 -0.34025020884735 0.99861804767725 0.62215359183587 -0.28932128218819 0.1714870658811 0.66860950632048 0.65349488711423 0.56299323886664 -0.19037233541081 0.70977660501743 0.72280912802428 0.69516312941218 0.45513536778293 0.094758993331529 0.95481765270367 1.0875141861959 0.63838509390455 1.634421226357 0.90456808719864 0.72929391279922 0.66888835300309 0.67565487068135 0.71304440316459 0.84384164955229 -0.0015300004505388 -0.036665866575716 0.95849561750157 0.31026551406428 0.57152591830594 0.84054254598199 0.7122282323521 1.7625551926856 1.0543666236616 0.79926578454845 0.91215146601154 1.1588331487002 1.8156559925731 1.0722291303306 0.99310567431782 1.3221495935727 1.6756059541422 0.80223070807593 0.78252585276601 0.89501557790185 0.7927166556856 0.99527641040414 0.89991144546905 1.1098796379601 1.6141766712161 1.1511780240798 1.4767335487395 1.3917558383972 0.86658441331121 1.05610312729 1.2739052918266 0.65904257397607 1.5174034846922 0.96342157777233 1.8779758896168 -0.010403052631129 -0.23731723330567 0.24701234990446 -0.117897900658 0.74438078300012 0.75688165020282 0.4111704269116 0.19467788624299 0.30360950036878 0.54084075804397 0.09166381853054 -0.5086271280457 -0.60313385042902 -0.26453554345895 0.138240755874 0.0053193279317601 0.1943950345118 0.45469779170551 0.043671362104308 -0.021159039748678 -0.15399404871057 -0.31699546151367 0.079428413668737 -0.033246968212454 0.043918069391157 0.21952755060418 0.27688263113028 0.41984772807629 0.31764170232069 -0.17898005056674 0.37416123105808 0.35067217102166 -0.1074032237605 -0.012206363366988 -0.15734228055012 -0.12862719366846 0.020681182648694 0.33243949349744 0.039455183142537 0.88005101123628 0.63351160104641 0.76155754596092 0.29611304616398 -0.041514221169734 0.054255448218974 1.01620128753 0.47563422397003 0.86123142761625 0.67377309430762 0.88006550613233 0.23338665540374 1.5065541719156 -0.56958681518846 -0.44801548340691 0.67019621485722 0.54877595549076 0.54886988314817 0.53763120679888 0.59083643495162 0.23195421401977 0.63610843121365 0.53486705543834 0.66940769250861 1.1401691086042 0.60885238293771 0.20082558081137 0.61505844494464 0.99436222990045 0.69164355733247 0.28950070965753 0.56268983919547 1.0827845031695 1.044681598439 -0.46944538234374 0.85302850821253 0.8144787282351 1.2192390285802 -0.53534417992646 0.914016962398 1.2428803546193 0.5967020040117 0.82501403827313 1.1231163815807 0.74711095500684 0.90141695568392 0.79138978186203 0.26342202536568 -0.2352169604615 0.76683310707553 0.09150415873445 -0.45605118974209 -0.56087618487927 0.9582300687503 1.081878078308 0.91306899501041 0.91964993454536 1.0076152701539 1.057471220395 0.95121665762295 0.55658855802582 0.42715843134951 1.0055362974933 1.0705931483405 0.96393622795747 0.80305003999252 0.56459588479844 -0.45340236186644 -0.32204002057255 0.20239820169313 0.26212988504759 0.63572369288975 0.26365973965753 0.41817277855783 1.5933043983652 2.0426250263929 1.9263997528174 1.3332445420598 1.180763920812 1.1782264433367 0.93901135476408 1.0773608814146 1.6172026717614 1.1741062457202 1.0620549394215 1.0150741657302 1.012892563492 1.0187530386815 0.9488044584845 0.96249301567625 0.89826147289123 1.0510706798536 0.91360984548006 0.93368205960865 1.5035223073588 1.040100002447 0.93625315054807 0.82714187708203 0.67862236260746 0.80106380852548 1.1815661444437 1.0796051164691 1.8129059254322 1.3220211772885 1.7785281515251 1.066348238713 1.325226269387 1.7892706836988 1.5449594838634 1.2547586165358 1.1927991086825 0.7414499246257 1.4789466830194 1.3906855036398 1.1044479367924 1.5480239903246 1.2955660230439 1.6666022497588 1.5600606883433 1.5151618912161 1.3209701330965 0.81900614940411 1.0765360026186 0.79719672970454 1.6478814048127 0.56209670821603 0.91825267805014 1.2225425279629 1.0829892862722 1.4908254119424 1.4474846296179 1.1696420914866 1.4913305529972 1.024325986603 0.96408524320213 1.8156280526992 0.71077772307159 0.84218922026227 1.0857273109088 1.0810436377545 1.2080110418106 0.79350530469917 1.6490904193399 1.4446950717935 1.8305128480981 1.1976672184333 0.72052040991364 1.077682988582 1.4454989025599 1.5158625819361 1.2016877011163 1.4747651495141 1.785266472374 1.0019643733593 0.85203643992294 0.82820044035422 0.91091254245008 1.8356113038089 0.82664303027005 0.72710580656921 0.83731000352521 0.95448002969694 0.77443009680162 1.4539719685328 0.69080034516846 0.78413348359955 1.1160883818464 0.50137229170273 0.61771229168263 1.112799390138 1.0162199909401 0.78330166050957 1.6582828846051 0.78769766891112 0.81785550918412 0.6962957417913 0.55319792243043 0.58362554769695 1.3935904748621 0.56976026321816 0.62409247652446 0.41535639496924 0.4522848353504 0.9564531171247 0.80221813735371 1.4978495491415 0.66507800457936 0.7479382394015 0.53570175000301 0.70255775445195 0.34260600603615 0.10343871785772 0.80763111142354 0.69185124620536 0.83394475788073 0.78695894799755 0.064935200378336 0.33279155583833 0.60422124225904 1.2785134025485 1.0244775281513 1.6792905017518 0.76377608435444 0.81010493070702 0.80091678936457 1.2690434789322 1.0907784510012 1.0022984638156 0.94212506585076 0.52509869520617 0.61009528830248 0.97879300566814 1.5049493467194 0.52206064723462 0.93898209985721 0.95469917253424 1.2607270477487 0.67070165902973 0.70632552708814 0.88802713802536 0.58970717152635 0.56411229914352 0.36706333872247 0.43099306598579 0.079787456788647 0.27935773628363 0.50712261627548 0.082843672532464 0.45243742892641 0.077766500867411 0.17400491181335 0.47135497861105 -0.064884715223486 0.087392197756442 0.074236719829982 0.54907527138464 0.29497104232166 0.24874237194976 0.23951497644193 0.52955304674923 0.80192652779197 0.095920937381831 0.1363910354971 0.27731277831436 0.56901657074578 0.22926281401229 0.45731550376282 0.55218568049711 0.60333811129507 0.58938677868717 0.65704054772181 0.58577267143322 0.53607347122461 0.59711484554173 0.61138190873183 0.58106512880495 0.74124398133124 0.56602200298679 0.6432274523078 0.57227862384533 0.38324473540623 0.52230199219761 0.55280137139228 0.55909326697965 0.54181665640099 0.53846122365234 0.25190722677913 0.29579788895897 0.30532173614651 0.59180543822259 0.58076246294882 0.24784316917272 0.27093141497412 0.7999740719957 0.80203482544941 0.48694698465232 0.56940613544471 0.71371267424063 0.76952736474778 0.3823735508751 0.60449224564617 0.80230019847298 0.68624309239876 0.79397389546508 0.75686213692087 0.83241422850932 0.76967652267609 0.68038708387252 0.64696663091505 0.69857109902486 0.48002421526485 0.71388050564356 0.5349744485547 0.60102269065016 0.62792802164429 0.38401087184201 0.46546747100016 0.057051363348205 0.23037739562909 0.48154243685652 0.54141010702537 0.48941955359985 0.39271163347215 0.11481994230128 0.55979638057525 0.015655658275139 -0.047404454721377 0.090019586020012 0.47637398785222 0.17301600692257 0.38055453441367 0.13338531345684 0.11063223267919 0.53199901311702 0.14151811163742 0.35971192008838 -0.26047080471007 -0.2269052422624 0.32599018368038 0.10563091418239 0.32637130657034 0.3527347801262 0.36132657755528 -0.11544150051604 0.53331285689957 0.052487328111786 0.66014557893339 0.091049915679276 0.68523958176247 0.23532955023902