# vtk DataFile Version 3.0
d-2__ created by libgimli-v1.4.0-22-g2d6c0250
ASCII
DATASET UNSTRUCTURED_GRID
POINTS 739 double
35.25	0	0
34.766081542978	-0.82021566092004	0
35.632578047987	-0.72883630452407	0
24.024974223709	-3.3959938323052	0
23.653360812241	-2.7288670633191	0
23.229010511392	-3.3529576731171	0
4.0418655321018	-4.0506862785614	0
3.4460515782386	-4.7439961566826	0
4.2311515920029	-5.0809003825016	0
15.407766344465	-7.3730645449994	0
16.233299169082	-7.2585920105004	0
15.614499752591	-6.6705036155538	0
0.87966150056611	-3.868344094725	0
0.53946997502051	-4.5402672655454	0
1.0423668045247	-4.5416868935558	0
10.044780655634	-1.38528895599	0
9.2449702923403	-0.85837555044783	0
9.345362148561	-1.7444613449413	0
9.4404614270197	-2.4142126442597	0
8.8670364751027	-2.2005241160204	0
8.8981197610435	-2.9065452242835	0
40.643431096227	-1.8007378109998	0
40.90951054121	-2.5500139899776	0
41.411624169268	-1.5999858451814	0
30.395367991702	-1.9693062955434	0
29.554682165597	-1.8859186953224	0
29.759185494429	-2.7694853144209	0
5.1523452594718	-5.0731882456395	0
4.7333838933121	-4.4274311535604	0
4.8293365853565	-6.5416884368369	0
4.6531391287001	-7.357849878802	0
5.3618836946219	-7.2453518540761	0
2.420340802333	-5.9803755969777	0
2.2095578170366	-5.1629239562001	0
1.5749245865607	-5.8280971878667	0
6.4631285840114	-5.7234774575293	0
7.0614370368234	-5.3339000067243	0
6.4310774709665	-5.0305550495624	0
6	-8	0
6.8149088859959	-7.1369339193422	0
6.0380890087879	-7.0593430649453	0
2.337095399571	-2.7024130282098	0
2.4182611852565	-1.7461085668484	0
1.7314028473745	-2.3660256592611	0
4.7120578677277	-5.728342736769	0
4.0027109767498	-6.0857371454819	0
5.6471126438986	-6.5176179037	0
5.8650720782736	-5.3997839601918	0
5.3575291744975	-5.8713437985688	0
8.8206498418204	-7.3549687861435	0
8.4413342175328	-6.6552453659709	0
8.1531633313928	-7.3876617519353	0
5.9380884743294	-5.9807090902451	0
6.340105930545	-6.4315959866684	0
4.0658421990741	-7.0053381340916	0
5.3593802187152	-4.2767652155575	0
5.858312820725	-4.714231643898	0
3.5539747292485	-5.4650356113086	0
3.1722088864894	-6.0889775775066	0
4	-8	0
5	-8	0
4.9041715027695	-3.6404381370114	0
6.3841275467394	-4.4206981320864	0
6.7082817957996	-3.6916407749453	0
5.9717371155479	-4.0622525356292	0
10.455786908479	-7.3899923003538	0
10.069732056581	-6.7108805202894	0
9.5950164365213	-7.3631486063629	0
2.7298127856572	-4.5788385214117	0
2.0726289944547	-4.3946730213117	0
7.1327228036634	-6.1871299893166	0
5.9922272054042	-3.4924814834306	0
4.2186757807963	-3.1085730056651	0
5.5515996961085	-3.721657217286	0
5.5244600938001	-3.1299237043516	0
2.921729566446	-5.3311984568052	0
6.9648131056334	-4.5768127754969	0
7.6649814503624	-4.8682074785256	0
7.7420202437717	-5.6148710814956	0
5.5676567450914	-2.3292148446412	0
4.9222559921608	-2.7486617302843	0
6.1971181697204	-2.8540900672423	0
7.0212731257583	-2.6573891139302	0
4.0890680178231	-0.80500860446348	0
3.2172049700142	-0.97874737870402	0
3.8193790308275	-1.6629755476804	0
8.3416777787407	-5.1833881033199	0
7.5572275114128	-4.102709076165	0
3.5794694184609	-3.3774522548669	0
7.6088637440976	-3.3061553813084	0
8.0396305197243	-2.3832345250595	0
7.2501992898856	-1.8315241352993	0
7.8258608922489	-1.346118462439	0
7.0328259049448	-0.91494393004697	0
6.369261658854	-1.8257400853179	0
4.9672453990647	-2.0402364640941	0
5.4220884530876	-1.389640384905	0
4.5794425818972	-1.4753994016058	0
0	-6	0
0.75115345976489	-6.2921750472139	0
0.77632627405085	-5.2976449958587	0
2.3034188316378	-3.3286511292171	0
1.9431807852442	-3.7381185229599	0
2.5260903249391	-3.8678537932067	0
7.8699182234219	-6.2360358230764	0
7.6542578277896	-6.8451202459774	0
8.2655479110563	-3.2088163092203	0
3.2040934351226	-3.9685105959404	0
0.734375	0	0
0	-1	0
0.61443623639171	-1.1818049446663	0
0	-2	0
0.52853507360799	-2.6508136276114	0
1.0036880328999	-1.9729809919743	0
1.8146822935359	-3.1226852479236	0
1.4514208372378	-3.5701769998337	0
1.5278007240401	-4.8942112229174	0
0	-4	0
3.5512838533278	-2.5599597745499	0
1.4868063674291	-4.1631811125537	0
2.9034746231188	-3.1852042312138	0
2.8721321228156	-2.4183325865144	0
4.3412571586717	-2.2647172445937	0
2	-8	0
2.6659100987264	-6.9662786892768	0
1.8544139966028	-7.1043716111303	0
0.5079131956491	-3.2995937075409	0
1.1307352897668	-2.9800868127229	0
3.4693050880931	-6.6981202008635	0
1.6868535240114	-1.6376438628027	0
3.440232320933	-7.3347847410184	0
3	-8	0
1	-8	0
0.61268418967956	-7.4660603407378	0
0	-8	0
0	-3	0
4.8535502314262	-0.7073385918545	0
3.1733778454903	-1.8751252197409	0
2.9375	0	0
3.671875	0	0
4.40625	0	0
2.4330107061784	-0.73760748326961	0
1.3333015130559	-0.9315959698365	0
1.8766050689234	-0.56293537948883	0
1.948537503014	-1.1293433308992	0
0	0	0
2.203125	0	0
1.46875	0	0
6.1316050836961	-0.78450548287625	0
5.484535700698	-0.57615159438342	0
7.7277917280599	-0.60111054434286	0
8.400860817486	-5.8876225358776	0
9.5630097790906	-2.94368847844	0
5.875	0	0
6.609375	0	0
8.3805420158992	-0.72883907306127	0
8.078125	0	0
5.140625	0	0
7.34375	0	0
1.9753969304143	-6.5108597214121	0
0	-7	0
1.3689252361078	-6.6773065404534	0
1.271866542911	-7.3681658699021	0
0.79843667000352	-6.9610346280904	0
0	-5	0
8.0934491987285	-3.7402798363746	0
8.3526223075714	-4.3862968716516	0
8.8812932222946	-4.8495908353712	0
9.2495369766643	-4.2685648122416	0
7.5241925852712	-7.4735725008744	0
7	-8	0
9.0708714075818	-5.4858233310482	0
10.678386559089	-3.3272598792468	0
10.804571464251	-4.3307964217889	0
11.41891875058	-3.7351133902904	0
8	-8	0
10	-8	0
9	-8	0
9.2512683726635	-6.7158200190867	0
8.5	-8	0
9.6398646977454	-6.0569476299073	0
12	-8	0
11.701190691715	-7.0178795707848	0
11.202571672499	-7.4461441005432	0
8.9599697063497	-6.1597869948541	0
11.233165938823	-5.1597635949138	0
10.502612452147	-5.0816627650991	0
10.624270039711	-5.9297050009808	0
10.875476750227	-6.8176234265893	0
11.297502262295	-6.4093708180867	0
9.4009670005084	-3.4945762481523	0
8.704031409935	-3.6771790743333	0
9.8711091463184	-5.3516531775058	0
9.4076131337331	-4.9197440922233	0
8.6148589807278	-1.5468768747086	0
9.9767463500217	-4.640261707511	0
10.015519359214	-3.8912900484212	0
9.9562334753365	-3.2602198917368	0
11.542293243434	-5.8727156156799	0
11.533831101922	-2.9603017492445	0
12.154184826355	-5.3073953175186	0
12.205039694262	-6.0302968717877	0
12.565653848073	-5.7317611342705	0
12.283650708161	-3.5816924475913	0
10.110157211253	-2.637865210986	0
9.8587877567004	-2.0420494257341	0
10.28125	0	0
9.546875	0	0
9.9649662999966	-0.60627195995189	0
12.70465236974	-4.5100365304716	0
11.770287658143	-4.440650932946	0
11.617832441555	-2.0064323806666	0
10.859498247607	-2.4328581497823	0
8.8125	0	0
10.705622488639	-0.78896034843682	0
15.06553672398	-6.276028353677	0
15.680974072729	-5.7849759373399	0
14.632715739621	-5.6685994613595	0
12.365976924043	-6.6743633558583	0
11.813005918224	-6.4031309146134	0
14.38647420984	-4.8199859379677	0
14.194804380357	-4.0595150993604	0
13.597094220068	-4.6359830373028	0
12.293397764589	-2.6540853557846	0
13.34178425423	-3.6968226496998	0
10.821707318997	-1.6462338807521	0
10.342661210516	-2.0275986905901	0
14.010238366691	-2.1919402828937	0
13.55729974309	-2.7484698825173	0
14.240137580401	-2.6619477668096	0
12.917051988236	-2.4369691973858	0
12.879625457607	-3.0259697333822	0
15.191535490918	-4.924313627692	0
12.484375	0	0
12.086565658987	-0.57709382902849	0
12.758125436677	-1.01796672845	0
11.96236122703	-1.2284582090393	0
11.015625	0	0
11.318264939988	-1.2611066042886	0
11.475466841094	-0.64060339861446	0
12.852009680744	-6.1773420833061	0
13.072225890854	-5.405038899661	0
11.75	0	0
13.886294673494	-5.3329592763524	0
13.758879284747	-6.1456668635604	0
13.226726949397	-7.0485511502546	0
12.486647683567	-1.8707614222818	0
16.082690019272	-4.8838028544159	0
15.588249595521	-4.0858229696258	0
13.21875	0	0
13.352540526941	-0.46325628238061	0
12.45258115371	-7.3503371603357	0
13	-8	0
14.832628878105	-4.3011594131318	0
14.166838931635	-3.2806882428375	0
14.837679056872	-2.8631337404129	0
14.652463129072	-2.1856472856178	0
13.572273204992	-1.0938488821995	0
14.257450469287	-1.4834733391051	0
14.136499103215	-0.64728730968009	0
11	-8	0
14.906932583358	-6.8595391989725	0
14.50530276564	-6.3880454815302	0
14.180657895825	-6.9822987629868	0
14	-8	0
13.361788428331	-1.8441238959815	0
13.953125	0	0
14.860489128315	-3.6273128087287	0
15.023516208248	-0.78525331169581	0
14.6875	0	0
16.433738536114	-4.1591436718784	0
16.8292022244	-4.7493086727781	0
16.492671238228	-2.7570829143144	0
15.55378227869	-2.2395328783323	0
15.583809923027	-3.1816603901125	0
16.41147786877	-1.8589837305121	0
17.312602990133	-1.9876176433335	0
15.06680452402	-1.5886399739304	0
15.85107129564	-1.2339717480057	0
16.195600797192	-3.5412022318805	0
17.114058842164	-4.1917737383704	0
16.896094149161	-3.5575267671562	0
16.811448977771	-5.5938104794507	0
17.491952228104	-2.9614820164517	0
16.15625	0	0
15.750627365419	-0.51721425022099	0
16.30045814652	-0.5635762108592	0
15.421875	0	0
15	-8	0
16	-8	0
22.756862915706	-1.8570017610221	0
22.344534171134	-2.5456024048519	0
22.969878419642	-2.6472927337462	0
20.044005905968	-2.534398285706	0
19.517693861884	-1.7376224821256	0
19.295726866527	-2.3913520544351	0
16.40676546016	-6.4555129050585	0
17.018238820229	-7.033983679535	0
17.634670927242	-3.7791145708047	0
18.858048753151	-0.56694169011229	0
19.09375	0	0
18.359375	0	0
16.853086776378	-1.0597567726391	0
18.167541581048	-2.4176717555584	0
17.627135722909	-1.2162305966125	0
16.890625	0	0
18.803920155665	-2.6260600115479	0
18.805716510343	-2.0028710992174	0
17.596801646645	-0.52497032841282	0
18.243386992724	-0.86293430039319	0
18.167765680984	-1.6205595504649	0
18.884682322029	-1.2506979597346	0
19.738008291269	-0.72929214829284	0
17.625	0	0
17.30462052823	-4.6267683525864	0
20.055946740925	-4.2871034324514	0
19.251021539757	-4.0538766602334	0
19.724539057624	-4.9713633198339	0
14.698061916436	-7.4441215935864	0
17.612789726548	-7.4211394446211	0
16.96875	-8	0
17.9375	-8	0
[...]
CELL_DATA 1349
SCALARS Coverage double 1
LOOKUP_TABLE default
1.4316599445999 0.60490110923984 -0.07731538713007 0.1297346917653 -0.32954553331762 1.0837671839964 0.73054786533656 0.73962214716727 0.86582835872254 -0.10132110103119 0.11862241262355 -0.01423727916268 -1.1762977137728 -0.14004554243525 -0.25315763569523 0.53950646838612 -0.009548528025225 -0.016878467203569 -0.11020465270055 0.33912385026787 -0.026039366758337 -0.35588265914513 0.068799710402684 -0.099776482513999 -0.046406160975703 -0.10606714251952 -0.34130220436265 0.05678658161625 0.043575131309693 0.032229479888381 -0.02935489927907 0.12604671865236 0.060560459766832 -0.037182425280427 -0.19360218332007 0.10975164431248 -0.053902202227011 -0.25167367407759 0.23266723921355 0.031178850507336 0.02759644799829 0.149751262605 0.099447240933128 -0.70877989705843 -0.053227462987193 -0.40290122122795 0.08483029764282 0.050903846201682 0.38018300960946 -0.0085201578272594 0.29163126293511 0.24006219479121 -0.11605661802006 0.19032992043522 0.39449609215077 -0.40282314424513 -0.14697048320186 0.045759321630243 -0.22552109848783 -0.066365153968598 -0.18717129316054 0.2080316914841 0.08598054863995 0.46888136243001 0.31558458856699 0.40311649405809 -0.20421883726088 -0.34840136580142 0.57166353670791 0.43619591297985 0.88879654569405 0.42954227258607 -0.1582558271877 -0.3658809352047 -0.10572444475431 0.24330835836924 0.38041533619053 -0.3639056067269 0.69711088044981 0.9520673280111 0.51711117236896 0.48712761887342 0.58155553948663 0.48768891255991 0.56656013384332 0.8122812082387 -1.1719996521997 -0.22833148590089 -0.65448187121435 0.73271447623903 0.14610865828454 -0.25609751056786 0.79905574089631 0.95132493763172 0.40572663574933 -0.27245855891598 -0.27543852771131 -0.83194197503181 -0.30159326240202 0.45570257671258 -0.54241270438027 -0.78510710270502 0.43993628722472 0.81629708446549 0.54577280780819 0.49889590702429 0.77353661704551 0.4466974069605 0.18119964764785 -1.5793188166162 0.055946387834796 -0.028048206364077 -0.040277055963019 0.0068247848280125 -0.47942063873737 0.46721316685839 -0.64122307537757 0.50338690188823 -0.26842190542721 -1.2566068231867 0.12006315354399 -0.82431231906386 -0.51683933208629 0.59598332285042 0.10334989089666 0.080823206255753 -0.59497009383814 0.69886261566309 0.0051166105299662 -0.3100899074714 -0.93023161809996 -0.17751189169626 -0.29284017522039 -0.23458411533465 -0.74750315148097 -0.59600155076662 0.50209401751272 0.49180043031727 0.69452806056761 0.098488981024398 -0.69599276280296 0.12131326188712 -0.41192852820803 0.57868042934886 0.67962264554638 0.63912177368395 0.493038506532 0.29275776825306 0.62446878980046 0.95128435062115 0.45744466496765 1.4569958303095 1.3098978694295 0.90757314723159 0.70312353518932 0.85657685377477 1.0469746336141 0.79863491014071 0.93753090568873 1.1308046262684 0.65435549588125 1.0049840389191 1.1542163351088 0.85505342495887 1.4831026888461 0.9731179466914 1.1264237138587 1.1633274781478 1.1041397664698 0.92281460849141 1.0336781411147 0.65620841695153 1.1961008225662 -0.41365290205122 0.7214886344598 1.5405253976784 1.3593738401821 1.3577961570372 0.16430471848104 0.11402814349557 0.30652635964091 0.37377192370593 0.8210134754925 0.99973501523257 0.91968925423663 1.3538331154415 1.070184883592 0.85455846449202 1.7565346571488 1.570408325138 0.87598934673129 1.2983293481243 1.3348740630096 1.4234209529543 -0.33219489773717 -0.14748299367597 -0.73033028987427 -1.3045161994516 -1.4406327441857 -0.25611079867606 -0.19606596335273 -1.3342103897709 -0.65272944580045 -1.4570395163914 -1.6855018873714 -0.94520924332511 -1.4982757314722 -1.9112777280351 -1.3178838018232 -1.4669180848245 -1.0330165038648 -0.96131062402129 0.52866679940696 -1.7897918601659 -0.36140418336965 0.70206578953498 -0.54126731894075 0.46826003967848 0.44874973534683 0.69960068779643 0.49543181446347 0.6203010292855 -1.0585581015708 0.70323346657866 0.5649471044286 0.65722333688043 0.31516561461888 0.09786157147194 0.062457857230784 0.36542515838709 -0.25428478092346 0.071081474973693 -0.60853176966174 -0.056357282474499 -0.63720068903792 -0.067449416668281 -0.32139062694599 -0.33089662782653 -0.64790070742431 -0.1430099653905 0.39264537209049 -0.32456622204384 -0.50642439484588 -0.022899602399279 0.18178814078742 0.98028559046991 0.48537926997597 0.6862225910332 0.94188962909831 0.51172863450926 0.93156122837244 0.21198709964684 -0.33236848966431 -0.01408748175312 -0.28986485852696 0.13536812448098 -0.50958797622624 0.11606598142246 -0.55514106853 0.53157010086008 -0.42142327762345 -0.30344946000116 0.66424331725704 -0.51025938336127 -0.26066119307859 0.52836194964635 0.51037826351422 0.59442323399864 0.71478254911896 0.2811537039264 0.67234353002825 0.49388970081879 0.73651285249232 0.063067440377979 0.46993615381566 -0.39176225149057 0.1163006490091 -0.58317177860396 -0.51310509564735 -0.15671164296658 0.43449916257554 -0.59102491976943 -0.48321872035715 0.3062432907209 0.63512505061272 0.064632232725726 1.294924756326 0.46536019280666 0.57830191768101 -0.014855071310695 0.45356096407335 -0.10185095441837 0.19250450062903 -0.21030145186105 -0.14995661494893 -0.1137117349392 -0.062881619125785 -0.22507745871495 0.44444698953349 0.09327803256873 0.62762112238338 0.59048660954269 0.69453917037338 0.67412138180198 0.6779135477427 1.4671967086432 1.7335114423648 0.6663103945246 0.70384669418394 1.1511564865181 1.5074476496628 1.0634011790262 1.080434890601 0.84389798720619 1.7730049871214 1.4543417850482 0.92777617573339 1.2230084038282 0.59655553602007 1.424756444735 -0.60157518732546 -1.3074878864322 -0.55948019414013 -0.0096997655698843 -0.197157033511 -0.56582324744338 -1.5661675712148 -0.3935741488637 -0.52639646242735 -0.36339388465634 -0.13171053509676 0.028346937744126 -0.018705351799833 0.46617110275128 0.430235469885 0.36529373642266 0.7713111764743 0.62064481012339 0.56166530884721 0.42205135757189 0.78880772234123 0.87176044282056 0.84369692193507 0.75727715171859 0.79585379881513 0.86576172216376 0.38755131375769 0.82645681092999 0.80535963665342 1.5130252461627 0.77897294722885 1.2802819599116 1.7876468199427 0.65622671152172 1.1704356712431 1.0182673417897 0.70729766655461 0.90526962037865 0.76228691018769 0.69238509307415 0.87862919928547 0.74267536680298 1.0342503143707 1.3084571689899 1.5821587273874 1.3080224135988 1.3607904134966 0.036685714714396 1.4412863348949 0.16648466802877 0.078568668641884 0.79389196660085 0.18629883760996 1.4883355739173 -0.022970756252417 0.59687952003413 0.53946688442521 0.6123790013334 0.26660818070798 0.60388018907263 0.066537802035278 1.0538087869455 0.46166909207925 0.10796615282105 1.5606126712634 0.39453229535684 0.1781785371322 0.97975399051942 0.62839818469929 0.38495556882841 0.72581748211285 0.74553214462226 1.0890860863566 -0.28536522362801 -0.66634257861454 0.14554179502059 -0.018539078524858 0.087097071885814 0.13820025445085 -0.033489633379063 -0.0028230013381686 -0.13348610039968 -0.064893230544589 0.3176835860194 0.13939445437815 0.11041953960271 0.22053286488521 0.36521673983295 0.41812664286634 0.046469280853962 1.772111105641 1.1306230442307 0.92915627841826 1.1869684972607 1.3912572547891 1.4554447458066 1.0565971134454 1.1089071436679 1.5924223722777 1.006834624147 0.89198179010951 0.8487629220034 0.93476934494871 0.80514801974192 0.75585347416717 0.679584792392 1.9920418391786 0.65576389495944 1.6129501596384 0.68074590528291 0.78752812859219 0.55349501301371 0.63719627670932 0.1632823040632 0.34306818550232 0.40706032914386 0.72493206758706 0.81412518839685 0.73282119985321 -0.23591572973722 0.09175450699227 -0.18876324776042 0.26446433410309 1.2371424498243 0.96516630173661 0.63553545857557 0.72519771834156 0.62406622786273 1.0952320468031 0.98622202227548 0.77364090409479 0.96352353365167 1.1603250412426 0.52312677011007 0.5664558110588 0.61371618989581 0.59843225023437 0.56562306652848 0.73162147994201 0.4011890057948 0.4791153344264 0.39229074734642 0.52822332293282 0.15432490061332 1.6585547673149 0.56998311232261 0.81806029068177 0.90670010871211 0.9614578214107 1.5566637050237 1.0073189794645 1.7651768422358 1.6823799051784 0.37943897341222 0.99409602065314 1.3703313027356 -0.18580950945259 1.0933845723528 0.42416121290756 0.78981690640675 0.82788574257071 0.40561825825688 0.42544627125517 1.8786236362538 -0.01048663631132 1.3758925089415 1.0387056880181 0.42849223753555 0.47699444275596 0.13771257636114 1.852112089676 0.73860192796902 0.99714119701188 0.76719299157399 1.059343682635 1.0224895490006 1.8759396543078 0.76541526329391 1.3145991642138 1.2717507222795 1.5082232199493 1.5785098170185 1.4312662998005 1.0193943509544 1.5704659104173 1.0671286293456 0.9807411668347 1.5811842768055 1.8349995241479 1.2496527454401 0.46981721121181 1.5861781869074 0.86968017330894 0.076861671472931 0.03140903611579 0.080561888804166 0.029602450213203 0.21975559079075 0.42508412906249 0.34423405434432 0.27558174568424 0.85718652459897 0.13716151569455 0.35718386746932 1.003129343976 0.36459552168855 0.19198135827376 -0.45203930410448 0.29751618332574 -0.13856317022667 0.42034052871138 -0.44632656900058 0.16242015821993 -0.00085557953158209 -0.41063928153405 -0.57342391720387 0.17893012567227 0.35874820327398 0.33713342651105 0.062012212716998 0.23547008917659 0.7457527603168 -0.57925719693609 -0.01336688154115 0.72529680676032 0.45194418235192 -0.26513571181306 1.6613363729734 0.62238527595921 0.080670182310235 0.44802947853225 0.63230300993995 -0.50702243230156 0.6362675232407 0.27596828665332 0.80067276008258 0.12581837722612 0.27375705121432 0.5100344488602 -0.27396686886137 -0.41869332235189 -0.2130479462303 0.54342249281571 0.66911269537569 0.34676885231523 0.34032492712195 -0.37000208088101 0.80744500400874 0.47644616159731 -0.028450959395192 -0.063698155099145 0.085682636618514 1.0638741701035 0.18622299438125 0.36685510851802 -0.099008941380523 0.84908591427678 0.89061991323584 0.43417747795423 0.16490813912019 -0.29624293384711 0.55977004970571 0.72944001976632 0.82216620911882 0.62389995505602 0.86823427438404 0.93110550649517 -0.111033464832 1.125861188866 0.75123132150941 0.68325676661621 0.90528185904413 0.70229305107057 0.38671227522452 0.79819949829749 0.49991239977875 0.52757523143784 0.59215981948174 0.74231729935325 0.16143202419647 0.49707004107276 -0.32344467833482 0.401212544206 -0.17826902342796 -0.03976614376595 0.35541348345926 -0.040565636199877 0.54964556531129 0.52193393891908 0.29378319773184 0.098068673128822 0.23330553621918 0.41855300320749 -0.25373947115357 0.38126012424991 1.182010292569 1.5413254235683 1.1957376539085 1.0795728058452 1.0052332329716 0.91978198827426 1.8820295634577 0.87017066704964 0.77024014388847 0.68368250460733 0.97407052000793 0.8027514444256 1.7349940043205 0.65170084843116 -0.092035100770928 0.63366186879006 0.070427982218533 -0.45755342994172 -0.16345041579591 -0.35189547911189 -0.35022525482041 -0.28302263163977 0.34655557673012 0.05113246477372 -0.13194212563383 -0.4049171130651 -0.47815844280392 0.29058664720026 -0.047093364292883 0.071627264732964 -0.094594899926702 -0.074757770730368 -0.47228166468353 -0.27856573277793 0.80226591935821 0.54804586306549 0.65440471973026 0.68921787650548 0.84159081701058 -0.36928645548166 0.80787639789228 0.87007391273257 0.59235358976024 0.85667260700448 0.92443348652701 0.38790825592327 0.069808716048434 0.80728703282862 0.84961925226332 -0.051661181625859 -0.14434743477212 0.71545776555881 0.74221701021738 0.029134611221287 0.39453292646832 -0.32131882030709 0.42971122754393 0.6776430928243 1.5973026269395 0.76335368523083 0.85693728107554 0.031306507967844 0.67469742047024 0.87147361566265 0.083262060243371 1.6272656906322 0.94813303526627 0.91118292209554 1.011998987001 1.3184014781169 1.8403575877319 1.0872028539573 1.6252689036157 1.0738427223653 1.1087732203565 0.12770851907368 1.5830294111114 1.1352619732598 1.4458968783287 0.64824770394103 0.45390058683541 -0.26471681059495 0.45243551999968 -0.3472239845187 0.43599043304422 0.39591136055421 -0.35567637192872 0.62196352710406 0.82640563764022 0.72886691478666 0.52500814556353 0.025905217895098 0.79584485783194 0.80089517158298 -0.45776327079167 -0.27739613479875 0.097189673453067 0.2431666083965 1.3157105225572 0.10631664015294 -0.36744845020895 0.50522998671989 -0.4223108069518 0.030659457223938 0.045459384929064 -0.20208832418763 -0.12097586098059 -0.29443065108334 -0.45780345750629 0.12698375501645 -0.33226752862434 0.72563797077995 -0.0025524237316112 0.21697319915547 0.40036593757109 -0.33858471832821 -0.27022378628243 0.74202635173211 0.61420060168429 -0.36944276780438 -0.44007097492443 0.46946721542128 0.44021237745421 -0.31335014696154 -0.37440746080498 -0.20929673963602 0.17898350809583 0.25549313529164 -0.07648489287879 0.68855492921003 0.85068376924424 -0.32021598092754 -0.31108109007808 1.0043230518902 0.6119165199758 -0.24552338682577 0.25587872461361 0.66344131361336 0.71699462250406 0.63323564933082 -0.17242695521399 0.68781421056106 0.72358067950136 0.77797984721658 0.55262932193178 0.1710044840361 0.93914689991384 1.0930732547418 0.6144168401965 1.6198870640698 0.89498735506606 0.79140499559123 0.77398446737201 0.67985086077005 0.68587856466647 0.79852068459268 0.014166116382231 0.020090157268669 0.94691519923956 0.38759945191501 0.60840852010101 0.81848726480438 0.67440545622446 1.7561332123359 1.0556672920119 0.75260906653706 0.90157876582034 1.1634632072909 1.8153441399884 1.073351549988 0.9707953878006 1.340794038871 1.6807869810582 0.80059650837244 0.75565045624569 0.91523003336807 0.73967704445474 0.97787523305448 0.85277252238209 1.1157967289751 1.5964340276107 1.1425006334699 1.5004245406609 1.3854466946329 0.83126269174816 1.0468591499081 1.2779076266336 0.68278032600742 1.5152462771926 0.91729838719704 1.880842251066 0.1060320562164 -0.15945776996192 0.27644725360388 -0.054964320556947 0.90320322882642 0.89073861966785 0.50595307019331 0.19216867015542 0.40690295500874 0.61024917136193 0.077262069155529 -0.46477097743518 -0.56203521087157 -0.21560241620293 0.1115158344804 -0.0016415218016914 0.1413201927392 0.48718106318414 -0.050312559835599 -0.08853379979874 -0.15998403623941 -0.31992589467748 -0.020440195116316 -0.080328746578935 -0.04872656349142 0.24613236611547 0.19400918498888 0.4620561994813 0.20602229011132 -0.19313111248389 0.24836432623453 0.21987751327142 -0.055765171445693 0.051270567542357 -0.16013715755387 -0.093432170973202 0.020623193740664 0.36886076676068 -0.038135688369821 0.8506098988809 0.63546083032635 0.77289974964938 0.32472232649703 0.0047827458371417 0.059224893624519 0.99387565808989 0.51449510157519 0.85131185299084 0.66657297710355 0.86793041471503 0.20053962203253 1.5036495004872 -0.55509526741439 -0.44475588673223 0.6763558088161 0.57787081417426 0.55118475635339 0.56098650166082 0.63272866504139 0.28379879663043 0.65534873679317 0.56619662184511 0.71652924350818 1.1348239828114 0.63815316971277 0.22424411513967 0.641284903914 0.98748337223472 0.69166358058662 0.3319461712708 0.5714389315 1.0653991745436 1.0277583623432 -0.4854497857976 0.82274933678608 0.79934204040826 1.204227143357 -0.51326652727053 0.91695140612916 1.2326387724844 0.60369253531522 0.82172642748716 1.1252560292866 0.7458300076464 0.89436391644058 0.79519674788091 0.30145587871197 -0.18629251394804 0.77792932042949 0.099254652856091 -0.45018044307507 -0.54343855182543 0.97165987321897 1.0558121750435 0.89557210035337 0.9235337397122 0.98743006451722 1.0184127221754 0.9610711936641 0.55789235958623 0.45302670209845 1.0123089070518 1.0485937122485 0.95680800973946 0.82768358276068 0.58762569808986 -0.45738540021748 -0.29163741989183 0.2111844808689 0.29441732709008 0.658168607891 0.32513897661842 0.45915640291575 1.6028554621369 2.0257665800572 1.9089829899471 1.3353303860099 1.1874577859231 1.1714217666564 0.92612286461719 1.0751874107816 1.6115559416642 1.1602035078256 1.0675214922551 1.0079729995666 1.0093183353894 1.0169792444697 0.9360735250991 0.95867922439335 0.8609854487033 1.019361654706 0.89158425609764 0.88572772199866 1.4893724922864 1.0409522955789 0.90103442919582 0.79984005171398 0.6874062145824 0.80442035759416 1.1684659181585 1.0770749330895 1.8208780604875 1.3354463816131 1.790757197636 1.0611045541303 1.3145553977807 1.8135280214602 1.5421420558768 1.2414548710615 1.1732638326965 0.75438403094721 1.4724239561388 1.3746677398272 1.0936993869388 1.540255459939 1.2634339837762 1.6630470659657 1.5592468439168 1.5115198889779 1.3024072294802 0.85606695018503 1.0628893022576 0.82848661418327 1.6652078463361 0.6231568267121 0.90835173606173 1.2081107877445 1.0698265263579 1.4899002995774 1.459910038662 1.1467435442539 1.5146607387511 1.0055463120922 0.94029873133449 1.8322362010028 0.70823276097564 0.82195040289417 1.0613663326092 1.0546876963468 1.2071236954447 0.77870673824005 1.6464223733697 1.4497210629162 1.8350982354851 1.1813487962978 0.72879506055525 1.0618397090615 1.4630678542622 1.5197786215564 1.197258479209 1.4679241927136 1.7864994007498 0.99483458741194 0.82723111669268 0.81550540522282 0.8824632405945 1.8308792591271 0.8096295642034 0.73586152532225 0.81542047049859 0.94297456143058 0.77390271431168 1.4545656069934 0.67806104752119 0.78796580303386 1.0780535189559 0.4519277285349 0.63373134927393 1.0850784270205 0.98242567029763 0.77569641973507 1.6470551973057 0.77089468985489 0.79266935558614 0.6238751653632 0.49633162427965 0.55954430711435 1.3902666707891 0.55536927684821 0.59699116996556 0.38279751366089 0.39403292343066 0.97742367601268 0.76434933425104 1.4812053791915 0.68350475629651 0.72495412595246 0.67345424583556 0.8430595267381 0.23692764648016 0.028874173076499 0.77792246414 0.67430254980507 0.79942787975333 0.74739609481945 0.03769746334308 0.30443721477721 0.60850261422425 1.2632725663964 1.0237677336157 1.6727818188026 0.7097242454865 0.76569200509618 0.74112084306694 1.2649091287987 1.0740756339962 0.98525000874762 0.93946205113186 0.45346674446509 0.60887874528934 0.97040415989165 1.493406195712 0.5290530023466 0.9113454738367 0.96825481138445 1.2602690830021 0.64702904448395 0.6672353145369 0.89627099808512 0.52758134307233 0.54697632537634 0.32584450161769 0.29961728737764 0.074482931416597 0.17121490982872 0.49558647088479 0.065411337451408 0.43310243550196 -0.006553671931824 0.093088621206108 0.38452456935266 -0.088585814582353 0.059550545608561 0.029668716235065 0.54297155447026 0.2472370886055 0.17653298024919 0.18829675765115 0.46300936677833 0.7365501802258 0.066196088525779 0.092318080254558 0.24589842101222 0.58723285370874 0.19601313277298 0.40381413889973 0.55549656558411 0.52945718920566 0.51371033831268 0.59472305549332 0.53040917968754 0.46974727337588 0.53043382684879 0.52476034589876 0.52077408677128 0.68685757980004 0.55207577345766 0.5971434842867 0.55563167407368 0.40362053205234 0.49303595555674 0.594447700364 0.52418509468125 0.55585775077393 0.55977337651071 0.20932905066089 0.27684614021918 0.30523132501407 0.6102584845793 0.6126069459029 0.23919325527023 0.28681422465404 0.78294727970339 0.78214359035362 0.39753150026598 0.59941472965011 0.68693718391242 0.7578285916604 0.29485748317917 0.61892697100776 0.77418076479509 0.6244633221636 0.76227443630046 0.71036366353309 0.77741681069288 0.72813798743893 0.64686738850284 0.58075641381392 0.68881432570439 0.41810977346837 0.70267990229287 0.53548160151507 0.60487604193142 0.65500232047915 0.25800601789083 0.3524835044371 -0.017601646278209 0.12150045446735 0.37713368344781 0.57523252231258 0.51037253283285 0.30319785533823 0.068192629369939 0.50529330653609 -0.014595735485915 -0.070703329401279 0.0572711699728 0.44662442370428 0.13742840678255 0.35320583135594 0.095018107406633 0.073426659646076 0.56651509124588 0.11805704462221 0.34474287001366 -0.28417302106429 -0.24880229580123 0.32486943394783 0.017934238028159 0.083819073220761 0.23692428392145 0.37184325755268 -0.21109092136052 0.57279279673409 0.076937937976487 0.64859646965534 0.0666870782627