# vtk DataFile Version 3.0
d-2__ created by libgimli-v1.4.0-22-g2d6c0250
ASCII
DATASET UNSTRUCTURED_GRID
POINTS 739 double
35.25	0	0
34.766081542978	-0.82021566092004	0
35.632578047987	-0.72883630452407	0
24.024974223709	-3.3959938323052	0
23.653360812241	-2.7288670633191	0
23.229010511392	-3.3529576731171	0
4.0418655321018	-4.0506862785614	0
3.4460515782386	-4.7439961566826	0
4.2311515920029	-5.0809003825016	0
15.407766344465	-7.3730645449994	0
16.233299169082	-7.2585920105004	0
15.614499752591	-6.6705036155538	0
0.87966150056611	-3.868344094725	0
0.53946997502051	-4.5402672655454	0
1.0423668045247	-4.5416868935558	0
10.044780655634	-1.38528895599	0
9.2449702923403	-0.85837555044783	0
9.345362148561	-1.7444613449413	0
9.4404614270197	-2.4142126442597	0
8.8670364751027	-2.2005241160204	0
8.8981197610435	-2.9065452242835	0
40.643431096227	-1.8007378109998	0
40.90951054121	-2.5500139899776	0
41.411624169268	-1.5999858451814	0
30.395367991702	-1.9693062955434	0
29.554682165597	-1.8859186953224	0
29.759185494429	-2.7694853144209	0
5.1523452594718	-5.0731882456395	0
4.7333838933121	-4.4274311535604	0
4.8293365853565	-6.5416884368369	0
4.6531391287001	-7.357849878802	0
5.3618836946219	-7.2453518540761	0
2.420340802333	-5.9803755969777	0
2.2095578170366	-5.1629239562001	0
1.5749245865607	-5.8280971878667	0
6.4631285840114	-5.7234774575293	0
7.0614370368234	-5.3339000067243	0
6.4310774709665	-5.0305550495624	0
6	-8	0
6.8149088859959	-7.1369339193422	0
6.0380890087879	-7.0593430649453	0
2.337095399571	-2.7024130282098	0
2.4182611852565	-1.7461085668484	0
1.7314028473745	-2.3660256592611	0
4.7120578677277	-5.728342736769	0
4.0027109767498	-6.0857371454819	0
5.6471126438986	-6.5176179037	0
5.8650720782736	-5.3997839601918	0
5.3575291744975	-5.8713437985688	0
8.8206498418204	-7.3549687861435	0
8.4413342175328	-6.6552453659709	0
8.1531633313928	-7.3876617519353	0
5.9380884743294	-5.9807090902451	0
6.340105930545	-6.4315959866684	0
4.0658421990741	-7.0053381340916	0
5.3593802187152	-4.2767652155575	0
5.858312820725	-4.714231643898	0
3.5539747292485	-5.4650356113086	0
3.1722088864894	-6.0889775775066	0
4	-8	0
5	-8	0
4.9041715027695	-3.6404381370114	0
6.3841275467394	-4.4206981320864	0
6.7082817957996	-3.6916407749453	0
5.9717371155479	-4.0622525356292	0
10.455786908479	-7.3899923003538	0
10.069732056581	-6.7108805202894	0
9.5950164365213	-7.3631486063629	0
2.7298127856572	-4.5788385214117	0
2.0726289944547	-4.3946730213117	0
7.1327228036634	-6.1871299893166	0
5.9922272054042	-3.4924814834306	0
4.2186757807963	-3.1085730056651	0
5.5515996961085	-3.721657217286	0
5.5244600938001	-3.1299237043516	0
2.921729566446	-5.3311984568052	0
6.9648131056334	-4.5768127754969	0
7.6649814503624	-4.8682074785256	0
7.7420202437717	-5.6148710814956	0
5.5676567450914	-2.3292148446412	0
4.9222559921608	-2.7486617302843	0
6.1971181697204	-2.8540900672423	0
7.0212731257583	-2.6573891139302	0
4.0890680178231	-0.80500860446348	0
3.2172049700142	-0.97874737870402	0
3.8193790308275	-1.6629755476804	0
8.3416777787407	-5.1833881033199	0
7.5572275114128	-4.102709076165	0
3.5794694184609	-3.3774522548669	0
7.6088637440976	-3.3061553813084	0
8.0396305197243	-2.3832345250595	0
7.2501992898856	-1.8315241352993	0
7.8258608922489	-1.346118462439	0
7.0328259049448	-0.91494393004697	0
6.369261658854	-1.8257400853179	0
4.9672453990647	-2.0402364640941	0
5.4220884530876	-1.389640384905	0
4.5794425818972	-1.4753994016058	0
0	-6	0
0.75115345976489	-6.2921750472139	0
0.77632627405085	-5.2976449958587	0
2.3034188316378	-3.3286511292171	0
1.9431807852442	-3.7381185229599	0
2.5260903249391	-3.8678537932067	0
7.8699182234219	-6.2360358230764	0
7.6542578277896	-6.8451202459774	0
8.2655479110563	-3.2088163092203	0
3.2040934351226	-3.9685105959404	0
0.734375	0	0
0	-1	0
0.61443623639171	-1.1818049446663	0
0	-2	0
0.52853507360799	-2.6508136276114	0
1.0036880328999	-1.9729809919743	0
1.8146822935359	-3.1226852479236	0
1.4514208372378	-3.5701769998337	0
1.5278007240401	-4.8942112229174	0
0	-4	0
3.5512838533278	-2.5599597745499	0
1.4868063674291	-4.1631811125537	0
2.9034746231188	-3.1852042312138	0
2.8721321228156	-2.4183325865144	0
4.3412571586717	-2.2647172445937	0
2	-8	0
2.6659100987264	-6.9662786892768	0
1.8544139966028	-7.1043716111303	0
0.5079131956491	-3.2995937075409	0
1.1307352897668	-2.9800868127229	0
3.4693050880931	-6.6981202008635	0
1.6868535240114	-1.6376438628027	0
3.440232320933	-7.3347847410184	0
3	-8	0
1	-8	0
0.61268418967956	-7.4660603407378	0
0	-8	0
0	-3	0
4.8535502314262	-0.7073385918545	0
3.1733778454903	-1.8751252197409	0
2.9375	0	0
3.671875	0	0
4.40625	0	0
2.4330107061784	-0.73760748326961	0
1.3333015130559	-0.9315959698365	0
1.8766050689234	-0.56293537948883	0
1.948537503014	-1.1293433308992	0
0	0	0
2.203125	0	0
1.46875	0	0
6.1316050836961	-0.78450548287625	0
5.484535700698	-0.57615159438342	0
7.7277917280599	-0.60111054434286	0
8.400860817486	-5.8876225358776	0
9.5630097790906	-2.94368847844	0
5.875	0	0
6.609375	0	0
8.3805420158992	-0.72883907306127	0
8.078125	0	0
5.140625	0	0
7.34375	0	0
1.9753969304143	-6.5108597214121	0
0	-7	0
1.3689252361078	-6.6773065404534	0
1.271866542911	-7.3681658699021	0
0.79843667000352	-6.9610346280904	0
0	-5	0
8.0934491987285	-3.7402798363746	0
8.3526223075714	-4.3862968716516	0
8.8812932222946	-4.8495908353712	0
9.2495369766643	-4.2685648122416	0
7.5241925852712	-7.4735725008744	0
7	-8	0
9.0708714075818	-5.4858233310482	0
10.678386559089	-3.3272598792468	0
10.804571464251	-4.3307964217889	0
11.41891875058	-3.7351133902904	0
8	-8	0
10	-8	0
9	-8	0
9.2512683726635	-6.7158200190867	0
8.5	-8	0
9.6398646977454	-6.0569476299073	0
12	-8	0
11.701190691715	-7.0178795707848	0
11.202571672499	-7.4461441005432	0
8.9599697063497	-6.1597869948541	0
11.233165938823	-5.1597635949138	0
10.502612452147	-5.0816627650991	0
10.624270039711	-5.9297050009808	0
10.875476750227	-6.8176234265893	0
11.297502262295	-6.4093708180867	0
9.4009670005084	-3.4945762481523	0
8.704031409935	-3.6771790743333	0
9.8711091463184	-5.3516531775058	0
9.4076131337331	-4.9197440922233	0
8.6148589807278	-1.5468768747086	0
9.9767463500217	-4.640261707511	0
10.015519359214	-3.8912900484212	0
9.9562334753365	-3.2602198917368	0
11.542293243434	-5.8727156156799	0
11.533831101922	-2.9603017492445	0
12.154184826355	-5.3073953175186	0
12.205039694262	-6.0302968717877	0
12.565653848073	-5.7317611342705	0
12.283650708161	-3.5816924475913	0
10.110157211253	-2.637865210986	0
9.8587877567004	-2.0420494257341	0
10.28125	0	0
9.546875	0	0
9.9649662999966	-0.60627195995189	0
12.70465236974	-4.5100365304716	0
11.770287658143	-4.440650932946	0
11.617832441555	-2.0064323806666	0
10.859498247607	-2.4328581497823	0
8.8125	0	0
10.705622488639	-0.78896034843682	0
15.06553672398	-6.276028353677	0
15.680974072729	-5.7849759373399	0
14.632715739621	-5.6685994613595	0
12.365976924043	-6.6743633558583	0
11.813005918224	-6.4031309146134	0
14.38647420984	-4.8199859379677	0
14.194804380357	-4.0595150993604	0
13.597094220068	-4.6359830373028	0
12.293397764589	-2.6540853557846	0
13.34178425423	-3.6968226496998	0
10.821707318997	-1.6462338807521	0
10.342661210516	-2.0275986905901	0
14.010238366691	-2.1919402828937	0
13.55729974309	-2.7484698825173	0
14.240137580401	-2.6619477668096	0
12.917051988236	-2.4369691973858	0
12.879625457607	-3.0259697333822	0
15.191535490918	-4.924313627692	0
12.484375	0	0
12.086565658987	-0.57709382902849	0
12.758125436677	-1.01796672845	0
11.96236122703	-1.2284582090393	0
11.015625	0	0
11.318264939988	-1.2611066042886	0
11.475466841094	-0.64060339861446	0
12.852009680744	-6.1773420833061	0
13.072225890854	-5.405038899661	0
11.75	0	0
13.886294673494	-5.3329592763524	0
13.758879284747	-6.1456668635604	0
13.226726949397	-7.0485511502546	0
12.486647683567	-1.8707614222818	0
16.082690019272	-4.8838028544159	0
15.588249595521	-4.0858229696258	0
13.21875	0	0
13.352540526941	-0.46325628238061	0
12.45258115371	-7.3503371603357	0
13	-8	0
14.832628878105	-4.3011594131318	0
14.166838931635	-3.2806882428375	0
14.837679056872	-2.8631337404129	0
14.652463129072	-2.1856472856178	0
13.572273204992	-1.0938488821995	0
14.257450469287	-1.4834733391051	0
14.136499103215	-0.64728730968009	0
11	-8	0
14.906932583358	-6.8595391989725	0
14.50530276564	-6.3880454815302	0
14.180657895825	-6.9822987629868	0
14	-8	0
13.361788428331	-1.8441238959815	0
13.953125	0	0
14.860489128315	-3.6273128087287	0
15.023516208248	-0.78525331169581	0
14.6875	0	0
16.433738536114	-4.1591436718784	0
16.8292022244	-4.7493086727781	0
16.492671238228	-2.7570829143144	0
15.55378227869	-2.2395328783323	0
15.583809923027	-3.1816603901125	0
16.41147786877	-1.8589837305121	0
17.312602990133	-1.9876176433335	0
15.06680452402	-1.5886399739304	0
15.85107129564	-1.2339717480057	0
16.195600797192	-3.5412022318805	0
17.114058842164	-4.1917737383704	0
16.896094149161	-3.5575267671562	0
16.811448977771	-5.5938104794507	0
17.491952228104	-2.9614820164517	0
16.15625	0	0
15.750627365419	-0.51721425022099	0
16.30045814652	-0.5635762108592	0
15.421875	0	0
15	-8	0
16	-8	0
22.756862915706	-1.8570017610221	0
22.344534171134	-2.5456024048519	0
22.969878419642	-2.6472927337462	0
20.044005905968	-2.534398285706	0
19.517693861884	-1.7376224821256	0
19.295726866527	-2.3913520544351	0
16.40676546016	-6.4555129050585	0
17.018238820229	-7.033983679535	0
17.634670927242	-3.7791145708047	0
18.858048753151	-0.56694169011229	0
19.09375	0	0
18.359375	0	0
16.853086776378	-1.0597567726391	0
18.167541581048	-2.4176717555584	0
17.627135722909	-1.2162305966125	0
16.890625	0	0
18.803920155665	-2.6260600115479	0
18.805716510343	-2.0028710992174	0
17.596801646645	-0.52497032841282	0
18.243386992724	-0.86293430039319	0
18.167765680984	-1.6205595504649	0
18.884682322029	-1.2506979597346	0
19.738008291269	-0.72929214829284	0
17.625	0	0
17.30462052823	-4.6267683525864	0
20.055946740925	-4.2871034324514	0
19.251021539757	-4.0538766602334	0
19.724539057624	-4.9713633198339	0
14.698061916436	-7.4441215935864	0
17.612789726548	-7.4211394446211	0
16.96875	-8	0
17.9375	-8	0
[...]
CELL_DATA 1349
SCALARS Coverage double 1
LOOKUP_TABLE default
1.4198572719822 0.7891659363143 -0.2196349758718 0.17100030823411 -0.45995252118503 1.0898961705772 0.79770005658809 0.69855135588525 0.8634392281043 -0.30051226053194 0.28068522917917 -0.21377512158724 -1.2008124670076 -0.34759004843744 0.46341557677199 0.59015674600029 -0.16145086639578 0.33364655097172 -0.18679586173521 0.085014989085096 0.07916451772947 0.29091071855534 0.02052943053844 -0.27599469619459 -0.23199115822953 -0.09868692510699 -0.59785449920235 0.46553473793729 -0.021543444516301 0.27062530812348 -0.21774022150296 0.060808479039992 0.038268484437983 -0.13261307587177 -0.53638690413932 0.28517049924705 0.30083037419271 -0.161651339617 0.021445069406169 0.13092880904828 0.47227330392942 0.17059656448134 -0.1510428376549 -0.91279394997863 -0.3616935629876 -0.13330066334184 0.3717315420676 0.24348379825308 0.11703851049307 -0.087419242487805 0.31173216496857 0.22717755102545 -0.15678364657151 0.054355318239201 0.38795341266427 -0.6284000389668 -0.33061428182012 -0.030328034510543 -0.13900829931037 -0.19493384354711 -0.23711302672961 0.17063988800465 -0.29238066038538 0.47142287056357 0.20041725580252 0.31074950538531 0.040765679506412 -0.064019374244135 0.36293065662118 0.44983854510895 0.88793333505147 0.51261803246507 0.089554061360644 0.22012872910971 -0.33792408637168 -0.0099890529942637 0.42113187733205 -0.64654326006386 0.53508886049039 0.95298930485098 0.32153564955502 0.39094893797428 0.51297665386589 0.42921170555914 0.42870607895005 0.82802661134718 -0.92519750015775 -0.27783989989322 -0.020210209991266 0.67939551575239 0.15680171069534 -0.41066114492294 0.74967802816344 0.97762463159018 0.26444002009132 -0.39466726219264 -0.39762938432905 -0.97677382178574 -0.39483486665284 0.5227029885032 -0.68520190896226 -0.89867501228053 0.5078852132013 0.80065395754342 0.58585133120583 0.56099813052724 0.74754978917969 0.54517761009183 0.16450492173925 -0.70642841178969 0.079477887967412 -0.034846130659659 -0.22169179685387 -0.017861874027675 -0.58821090027198 0.53399647905789 -0.79210950787758 0.56384772814368 -0.31591350581578 -1.322009895315 0.11599624562934 -0.89097226826286 -0.63515640643798 0.56516263443558 -0.05859997215757 0.07916351222401 -0.73881790854085 0.7134280661725 -0.1629717466273 -0.50457066824831 -1.0543361560108 -0.39741900216204 -0.41838087631765 -0.31281302128683 -0.80161664397078 -0.71839875394013 0.5720462827233 0.4897998859602 0.6472362105449 -0.012465739514433 -0.86160975703473 0.027603517276018 -0.090524447102621 0.97147316058885 0.58769136424968 0.43478025546181 0.55075234230925 0.14684777651545 0.63757879690464 0.93740123773451 0.52910957153459 1.4414180839659 1.2977149216677 0.83887566453974 0.67052559095377 0.72960806807402 0.98115079147248 0.74370443595717 0.84197820969318 1.1153017967487 0.62727896517784 0.92868523374002 1.1372516599433 0.77948657086209 1.4697926756129 0.96337697894884 1.1449401936603 1.1446969953457 1.068917138679 0.9410052614013 1.0293379038061 0.56011617539606 1.2090543327902 -0.24989463671749 0.89875459791676 1.5227442867722 1.3637122951884 1.3625434912362 -0.025459670619294 -0.0094331504773472 0.1404058225922 0.24538624009203 0.81676410234225 1.0076636793554 0.83706842597468 1.3401393510348 1.0957047540721 0.86714067917112 1.7463122219938 1.5653995638387 0.88946245229145 1.285969694856 1.3415283467637 1.4173124119752 -0.5898476143901 -0.37349587405465 -0.93261722815405 -1.1596976380491 -0.65822633156501 -0.24369132280721 -0.086144545952702 -1.0760359622911 -0.6429144995565 -0.87199787525992 -0.96292714160557 -1.0082821279597 -0.32650802120391 -1.1151619797492 -0.42739576757442 -1.1343923691396 -0.15740600156666 -0.20298250286461 0.91052115769847 -0.86920966311785 0.3128749819018 0.72840057526308 -0.40641338627211 0.52578416201092 0.51359424812825 0.67760762268518 0.55855584516146 0.63378488312948 -0.97507584585999 0.71977943116025 0.28780671158862 0.4937479665459 0.054535216963547 0.20610242113629 -0.3352832814309 0.0099014535481104 -0.38778504570768 -0.0088983826004591 -0.19107383818992 0.1119346811706 0.083749105169482 0.19147093845479 0.36025940584011 0.30973139177433 -0.22274860535124 0.017703386319377 0.45408015512909 0.49753687110826 -0.16595583980377 0.35237660908367 0.31159031405453 0.48192871339776 0.17246949443658 0.23945552727935 0.3149141885796 0.23290394673549 0.36287958157945 0.032199396825632 -0.13293901513834 -0.068073138942241 -0.17014559481093 0.15003275538532 -0.22552686423272 0.092050417043042 -0.24694415634936 0.38342754680733 -0.19094867263962 -0.25730251213546 0.7765091649689 -0.1926961463381 -0.0060627102519155 0.33835109513716 0.58043999268105 0.41034330273352 0.65167503065559 0.025616851179515 0.61352628914113 0.52698778476155 0.74653038652917 0.06855173126029 0.36117537325068 -0.30795478552601 0.30281140473381 -0.24442269648017 -0.14524453770094 0.10389399698558 0.6194295830042 -0.36763234857741 -0.24010656316878 0.52114411834674 0.81899111163358 0.27300852932233 1.2786024244529 0.66601849773668 0.77008084099839 0.26533500761441 0.68137946303907 0.19151933752148 0.38489192382441 0.07546153681907 0.038864893339685 -0.16202299009175 -0.12895476680873 -0.15643325508798 0.72799151379967 -0.033702371237061 0.60235589818906 0.87406327188022 0.7766684853406 0.8959911338815 0.95030147877277 1.5248772915618 1.7354114573385 0.51913569195251 0.82124162316044 1.1578308183704 1.4897265440985 1.0389288656539 1.0399746671792 0.79803280207257 1.7992297313108 1.4700720026808 0.94670250396808 1.2664075636886 0.79626863263864 1.4585421205411 -0.54363654784775 -0.64249945163255 -0.21682728058327 0.58966762744958 0.39076418130178 0.26346862729265 -0.44816170798595 -0.46540222420673 -0.61194616374273 -0.30578379675413 -0.093734884721011 0.15842283454665 -0.17280298427896 0.47503187122216 0.45339822714872 0.20506393059752 0.77782496936113 0.59059562012328 0.9021050276505 0.26967212640285 0.73111954059215 0.7543535583385 0.90416923255946 0.48284751666981 0.72932989608537 0.6881668568457 0.59569865090661 0.64903468630057 0.89655312784531 1.5271287761284 0.84947363418935 1.316937814879 1.8071475909772 0.91253116906932 1.1708685782652 0.9853274136863 0.90898951343353 0.9222783258134 0.85269719309296 0.86635010963292 0.82907905103 0.77192965429077 1.0287073532857 1.3299995323695 1.6008694267191 1.3059236212186 1.4538841584574 -0.088847159880046 1.447196990354 0.16832378200645 0.016604530025071 0.64964351878498 0.12162567855422 1.4352070643158 -0.071979678615961 0.44364864569466 0.37671061745677 0.5629835235413 0.33175433576269 0.6181664428846 -0.04822136826092 1.0998595369517 0.67873976119197 0.48501993339821 1.489813249482 0.087147349533391 0.10855486370669 0.99851397309798 0.78922197723012 0.28487016838768 0.65108479208841 0.69488334665998 1.1297099087867 -0.015571223633817 -0.37686329651623 0.0027019826044521 0.13638718711094 -0.013691281727044 0.1607963937486 -0.12076763355761 -0.10167361876181 -0.21963980230277 -0.14737131273409 0.04809114478391 -0.076130766189457 -0.0089925522191431 -0.007724902749573 0.10510501249563 0.091646193362098 -0.0051366480405589 1.7836598138492 1.1630563378124 0.81630987229206 1.1982181700915 1.365204948428 1.442708846995 0.97400269054154 1.0019997385387 1.5644407793533 0.80431085549511 0.87483584813166 0.58636884710296 0.77910203023007 0.5631408946295 0.5276614720236 0.63190280018289 1.9380270459578 0.66369650401139 1.5994990738027 0.78368667152647 0.67079441489848 0.61022523401957 0.80580695499779 0.14133293229819 0.53234109768332 0.5347298785871 0.76910570211222 0.84567949821934 0.7037833200087 -0.02938144688584 0.095264339352395 -0.0032039252458577 0.32033596096246 1.254922312099 0.88234508772602 0.64954385277819 0.73044376487795 0.73995351127792 1.0668761126088 0.9232825414726 0.82402065531676 0.92424345599265 1.1889270072734 0.76628952846781 0.70461247704406 0.67038817848623 0.75806888317016 0.79701708001023 0.730203899109 0.58148750242348 0.65337826707607 0.47601081138248 0.7257221283566 0.42650701677821 1.6586167774642 0.8190637574855 0.86772118575415 0.85701930316299 0.92432123019302 1.5888304331009 1.0170713415566 1.7712741162345 1.662483681644 0.23904352572089 0.97572410468725 1.3337635596023 0.067641736618497 1.0417078284598 0.65439316873684 0.86172404615039 0.86293270220947 0.2882059469178 0.51823533605329 1.8553653654474 0.23200348288169 1.4027416164561 1.0138160217724 0.59213079553777 0.4762789903747 0.4205158315944 1.8434208851357 0.89841887784252 0.9855369252419 0.86206234763702 1.0256477774896 1.0205007966728 1.8812579074092 0.86419554814297 1.2612379836288 1.2245690405657 1.5172127214228 1.6075086551948 1.3772867414392 1.005885539103 1.5731467390188 1.0733907365169 0.97527208269585 1.5626970119552 1.8534039278117 1.2163625772912 0.46628654657711 1.5631924739381 0.59905395823075 0.18256895017017 0.04793311170397 -0.024436391503528 0.00035085895511871 0.051010334125355 0.45632257318752 0.093430372407792 0.096622570407983 0.50438930698325 0.072683626211501 0.13928667343733 0.96208933036657 0.16959550702391 0.088918672496528 0.083067963998319 0.41174452612153 0.13791248657212 0.4016796556834 0.061120316983778 0.23292822173017 0.1278772176555 0.092166726936526 -0.010749732261949 0.28706095303587 -0.018480030648416 0.40804053459245 0.29781424592391 0.28570987240043 0.22501342054206 0.013070699651268 0.18168229957174 0.43937341157608 0.41941284470301 0.18388680703697 1.6599261214193 0.47330527787919 -0.0087982282353161 0.0011678451081815 0.37344982939838 -0.12403063455835 0.34460268937869 0.095478818047 0.24240133668795 0.067193464837735 0.35576340973609 0.067917775949046 -0.229764914746 -0.11605046517803 -0.14634312170725 0.14743993476116 0.40997129829133 0.17936837172753 0.2269877849359 -0.27211856649917 0.11172018716177 0.57530166691574 -0.12667398181579 -0.065170644947203 -0.20486181677905 1.0320806811413 0.26424231067477 0.25358298790128 0.23500536391632 0.65622634645317 0.63598765169792 0.21484046213456 0.18658010534065 -0.044020185630535 0.66066346120514 0.74608603069819 0.59453666492822 0.64136846828172 0.79916966719323 0.66357552205662 -0.10961483850916 1.1420421334756 0.64953649129532 0.75389819660697 0.78794015121768 0.72684838001575 0.60341231632909 0.57095864128807 0.44326379587274 0.37136639548735 0.43304818133015 0.44629734095635 0.33650150504454 0.43588314617094 0.0093655138395668 0.38996524163039 0.072683205619292 -0.092362943138017 0.30175589894625 0.026479855312261 0.42013610641047 0.46962468803876 0.14680581851438 0.11004980280795 0.031586278840405 0.24602082228252 0.11923962218712 0.39221141578728 1.1888954927925 1.5372505980302 1.2088485257499 1.0609690972935 1.0590673923324 0.94366242422632 1.8698793190089 0.9062142191114 0.85158375699151 0.64024779665758 0.95481527696315 0.91296013333977 1.7405659852952 0.77142680881406 -0.29532778147328 0.10988336978448 0.31594554416509 -0.081115990841325 -0.16594353509337 -0.3000438368783 -0.25381510127967 -0.11462404238816 0.21568408803563 -0.029986768676777 -0.16705467499328 -0.23377096818824 -0.14087950741126 0.24692178736705 0.031526299710059 -0.28463495364637 -0.41292212666002 0.24798941258982 -0.14447713511806 -0.47445177965486 0.9101064861239 0.74671164311337 0.73475417417308 0.92193071878548 0.90735458285359 -0.1604960066648 0.81912598415676 0.82802537950851 0.54808374174194 0.83994234977959 0.74770109656515 0.28217593457147 0.24832931503887 0.91401278030757 0.86362156915946 0.043889896385929 -0.14324440688427 0.82189405342508 0.75384425737704 -0.21543279564858 0.27203329090285 -0.42168020401534 0.24149934710883 0.98567403810936 1.6076310414473 0.82182283584862 0.88524002802796 -0.16818895999783 0.87136807080423 0.86814927047808 -0.17870087931865 1.65303694926 0.97899651415429 0.94907273917634 0.98591288039431 1.2717279486098 1.8527578125719 0.97490099226098 1.6171904283274 1.0502036423816 1.0794451390685 -0.14121723583153 1.5686317314304 1.1273302888437 1.4529226092956 0.79667536094556 0.252009430425 -0.33853713520161 0.18556046472882 -0.50758515569528 0.1991743278813 0.13482879196915 -0.47574912962991 0.89185534726152 0.9123322498327 0.75763530985547 0.77220614005878 0.079795385045507 0.87209522765083 0.76031598246357 -0.56926022565547 -0.29309171796359 0.030528680828455 0.16955833966073 1.319937908715 0.099210504296993 -0.56526689067031 0.66426625300833 -0.59248637250327 -0.091085442327502 0.2546408720894 -0.37012097111886 -0.20673088222278 -0.41591861623835 -0.41187478893146 0.07568902556575 -0.29420001578754 0.82906467427398 -0.22193168307911 0.10392717861236 0.23678039658522 -0.2506623302505 -0.36570976515224 0.70962956707045 0.73906728674424 -0.27025545884511 -0.20269349820516 0.63600209116886 0.76053633963547 -0.35598096502403 -0.11278372409846 -0.18911292074155 0.030164321443033 0.067658021756587 -0.19774421096956 0.67862481242134 0.92526323438172 -0.46867571608178 -0.38416327364658 0.99804575291906 0.6663990843372 0.15112522530125 0.54990091750061 0.85646847271757 0.98989806303297 0.86730299122886 -0.39418590570954 0.8038717103739 0.85784129572979 1.0035648553861 0.80291838506963 0.43814911477725 0.84935171336946 1.0796084428361 0.73960288796862 1.6672102548856 0.94452618863702 0.95198316517772 0.94286409877239 0.53899463655904 0.74625385519473 0.66494300410231 -0.19481464889173 0.14219508485518 0.90558079734903 0.61043776213345 0.49009350509015 0.78951562647549 0.61163333558992 1.735652638964 1.0290254982757 0.73897359066488 0.94381370784168 1.1192562528652 1.7973843834076 0.99873223127149 0.90720916769624 1.5069849053503 1.7126795402062 0.71743748098985 0.61398890345272 0.83109981932053 0.6761339210312 0.95303678781884 0.82161096447191 1.0830168726898 1.5832452430529 1.0903212249762 1.4261727929816 1.4163620842778 0.80878177844691 1.0182841058525 1.260754474287 0.68158752462218 1.5663782845909 0.95230924377817 1.8879986249882 0.27118820755655 -0.092760965490825 0.19847364135799 -0.045554083954512 0.95022039073111 0.87526385297811 0.504877026527 0.03815521309476 0.4509988051549 0.55698039151381 -0.081359213982201 -0.48496128207285 -0.53424034438398 -0.23283187012804 0.023206215434153 -0.14193878473198 0.22025078897149 0.40068553459095 0.082593993537915 0.028631962069122 -0.22806891568651 -0.32140916054212 0.1025730336283 -0.024502917927773 0.11281223380885 0.037330645065454 0.33224854760237 0.53516543432195 0.40075691688188 -0.21566146561656 0.47272801104203 0.42760471476926 -0.220513641498 -0.015050055375806 -0.24071893313681 -0.15722603089793 -0.17863998967663 0.053206404300795 -0.0042901758439629 0.63249121122307 0.32416767261165 0.63428784614197 0.26923785181001 0.031573109838149 -0.18084219714886 0.9480091310152 0.3070299156756 0.58800577605546 0.38024675140932 0.64273475976738 0.16017722052953 1.5124872157089 -0.67345579964748 -0.65554745949989 0.49889292640464 0.5673562461527 0.7210666069743 0.64291980434811 0.70030297055324 0.31334504613572 0.51541672843445 0.65199036506475 0.61521783988238 1.1205126381715 0.67614720927139 0.058025681200555 0.68618284436572 0.91701816462773 0.8444909198414 0.35357649137068 0.59100060691902 1.0759582790838 1.0158332783703 -0.58080189234972 0.83488589856479 0.74368492780314 1.2276204295697 -0.63702274332603 0.92345351809951 1.2163563566259 0.78780464796428 0.88379064405061 1.1071415914096 0.84522571134463 0.88620977399815 0.70328457014176 0.27059357685771 -0.1968768935388 0.6961603471078 -0.097739090916742 -0.55711894090443 -0.65035764666983 0.95997510147795 1.031388042287 0.91371244545018 0.81732756105607 0.9585161925325 1.005478462531 0.88893175114656 0.40706309959642 0.36219418134538 0.92924386698557 0.98885530851449 0.86047895253395 0.73933340984375 0.44048014781832 -0.6404236706499 -0.40649687448071 0.066481616772995 0.23136919528102 0.6128549080369 0.26956727554769 0.35928842301192 1.5412464715412 2.0582502007747 1.9134472214577 1.2987057760352 1.1510342927412 1.1599833740931 0.93275244669856 1.0596118001832 1.6071549114035 1.1369917270299 1.0688650513266 1.0259373288237 0.98603418969751 1.0260129826364 0.91327248590504 0.95819833533753 0.84068031109456 1.0155490094472 0.92280534454503 0.87882204796037 1.4982417576408 1.0265798865868 0.92455394010751 0.83019883435415 0.76050202966211 0.82568731390792 1.1776933362497 1.0792891976438 1.8383374059284 1.3151372517196 1.8072312410504 1.0492767241208 1.3560840010594 1.8280924712662 1.5665476687447 1.2564402182124 1.1674743985096 0.81105356099081 1.4575503587925 1.3879504815029 1.0865110536969 1.5347452458815 1.265619628904 1.6802579365786 1.5684950112212 1.5105877999 1.2962119721606 0.84604471796757 1.044302017148 0.86779768006134 1.6957619345385 0.62240996692724 0.95905345331477 1.1992356727414 1.1079916764606 1.4689811362377 1.4481426290187 1.1556785969056 1.4871583700743 0.99422698634428 0.98492159965617 1.8207461521211 0.80210765029828 0.79283778535098 1.0811714638361 1.089961408979 1.2187680255011 0.77664237875293 1.6298492564728 1.4380734137529 1.8280895955149 1.2176195328848 0.74111350680499 1.0199926908153 1.4648072999207 1.5190876297694 1.1874269999884 1.4664717960199 1.7874938159092 1.0121943410607 0.77185551095336 0.90386598855689 0.68693363362369 1.8293100524776 0.84790623524554 0.81179825147086 0.78259290004906 0.94109835778713 0.62195385563994 1.4531695641538 0.59398837771002 0.81679658194541 1.0678809880213 0.58232838632311 0.70841086321538 1.044680817548 0.97187050796534 0.75934980664304 1.6392587990161 0.60231137852212 0.67574150285529 0.69431410145228 0.56463321375717 0.69755915429677 1.3731555469979 0.5415505730195 0.6230451774013 0.1869823499167 0.4639870155368 0.95970388506701 0.7645154044748 1.4707958776637 0.70163720600486 0.7381615473396 0.76075232840347 0.85376907958362 0.33122376868418 0.00058216350176925 0.63215890995172 0.7146932814444 0.66064889444106 0.67024581243697 -0.12884315598094 0.12025275173213 0.58172802563404 1.3347692259307 0.99016335314396 1.6589075397745 0.70156633897735 0.79221273361723 0.70774220415457 1.2843612815784 1.0305288695562 1.0504810156446 0.97505672948463 0.50165866450458 0.57135167684245 0.95808870871848 1.4939899779176 0.50900303257062 0.95609374763978 0.98940583046338 1.2921610823383 0.66091537700576 0.66854408027469 0.91426691472064 0.51909914620385 0.49601074994057 0.22315536208834 0.4974386231922 -0.18557810526767 0.22468625341287 0.17155185551704 -0.15346459815776 0.21560162014291 0.010325783034549 0.072654991717627 0.48925482966928 -0.26385058345157 -0.12656525855522 -0.095328638855709 0.4580632893816 0.23320316729383 0.17760140280849 0.18520236523597 0.56475376167154 0.66342525543797 -0.093440560249904 -0.089644442988918 0.0025833065863378 0.50805674109059 0.15644074741914 0.46865763000799 0.51183014727201 0.68388010868994 0.61846668641763 0.73864232973481 0.58175934729921 0.5482882706404 0.57959718060461 0.68199000072204 0.5408896692954 0.64925303995004 0.52125960210629 0.59071993199554 0.51090431484721 0.29432549658384 0.49989523284986 0.53934713773022 0.54758206305399 0.50805463831964 0.50630684676489 0.074669177548158 0.24413824225478 0.23819185783403 0.53197452378748 0.55157998667947 0.16937534540714 0.21404112157182 0.80576254701297 0.82218874270887 0.34706988276349 0.51094080390095 0.68778753086103 0.76111602883036 0.45151868545737 0.55115690450327 0.8152226038408 0.60391366614644 0.82338661547965 0.65730063073453 0.77763469145899 0.72549651195254 0.60254482754182 0.55278062412424 0.63056249247402 0.56273696285163 0.69734473974414 0.62402387194233 0.59459586965493 0.5746998444363 0.40057138131805 0.45789792914368 -0.040052451096884 0.22789313057218 0.49424753335336 0.48281856286372 0.39333655894368 0.34390850434464 -0.088756068183771 0.5243322637297 -0.20290629852463 -0.20510796401626 -0.12574505132605 0.44596619093733 0.034430847782764 0.31523782555389 -0.14917396713408 -0.099922771287395 0.44045647156085 -0.17193553959212 0.34617265502289 -0.25960315220222 -0.23974937818696 0.14718224912022 0.071204918953832 0.42021039893998 0.31871707567305 0.13560534489161 -0.14176923643809 0.46607179109724 0.0731254398