# vtk DataFile Version 3.0
d-2__ created by libgimli-v1.4.0-22-g2d6c0250
ASCII
DATASET UNSTRUCTURED_GRID
POINTS 739 double
35.25	0	0
34.766081542978	-0.82021566092004	0
35.632578047987	-0.72883630452407	0
24.024974223709	-3.3959938323052	0
23.653360812241	-2.7288670633191	0
23.229010511392	-3.3529576731171	0
4.0418655321018	-4.0506862785614	0
3.4460515782386	-4.7439961566826	0
4.2311515920029	-5.0809003825016	0
15.407766344465	-7.3730645449994	0
16.233299169082	-7.2585920105004	0
15.614499752591	-6.6705036155538	0
0.87966150056611	-3.868344094725	0
0.53946997502051	-4.5402672655454	0
1.0423668045247	-4.5416868935558	0
10.044780655634	-1.38528895599	0
9.2449702923403	-0.85837555044783	0
9.345362148561	-1.7444613449413	0
9.4404614270197	-2.4142126442597	0
8.8670364751027	-2.2005241160204	0
8.8981197610435	-2.9065452242835	0
40.643431096227	-1.8007378109998	0
40.90951054121	-2.5500139899776	0
41.411624169268	-1.5999858451814	0
30.395367991702	-1.9693062955434	0
29.554682165597	-1.8859186953224	0
29.759185494429	-2.7694853144209	0
5.1523452594718	-5.0731882456395	0
4.7333838933121	-4.4274311535604	0
4.8293365853565	-6.5416884368369	0
4.6531391287001	-7.357849878802	0
5.3618836946219	-7.2453518540761	0
2.420340802333	-5.9803755969777	0
2.2095578170366	-5.1629239562001	0
1.5749245865607	-5.8280971878667	0
6.4631285840114	-5.7234774575293	0
7.0614370368234	-5.3339000067243	0
6.4310774709665	-5.0305550495624	0
6	-8	0
6.8149088859959	-7.1369339193422	0
6.0380890087879	-7.0593430649453	0
2.337095399571	-2.7024130282098	0
2.4182611852565	-1.7461085668484	0
1.7314028473745	-2.3660256592611	0
4.7120578677277	-5.728342736769	0
4.0027109767498	-6.0857371454819	0
5.6471126438986	-6.5176179037	0
5.8650720782736	-5.3997839601918	0
5.3575291744975	-5.8713437985688	0
8.8206498418204	-7.3549687861435	0
8.4413342175328	-6.6552453659709	0
8.1531633313928	-7.3876617519353	0
5.9380884743294	-5.9807090902451	0
6.340105930545	-6.4315959866684	0
4.0658421990741	-7.0053381340916	0
5.3593802187152	-4.2767652155575	0
5.858312820725	-4.714231643898	0
3.5539747292485	-5.4650356113086	0
3.1722088864894	-6.0889775775066	0
4	-8	0
5	-8	0
4.9041715027695	-3.6404381370114	0
6.3841275467394	-4.4206981320864	0
6.7082817957996	-3.6916407749453	0
5.9717371155479	-4.0622525356292	0
10.455786908479	-7.3899923003538	0
10.069732056581	-6.7108805202894	0
9.5950164365213	-7.3631486063629	0
2.7298127856572	-4.5788385214117	0
2.0726289944547	-4.3946730213117	0
7.1327228036634	-6.1871299893166	0
5.9922272054042	-3.4924814834306	0
4.2186757807963	-3.1085730056651	0
5.5515996961085	-3.721657217286	0
5.5244600938001	-3.1299237043516	0
2.921729566446	-5.3311984568052	0
6.9648131056334	-4.5768127754969	0
7.6649814503624	-4.8682074785256	0
7.7420202437717	-5.6148710814956	0
5.5676567450914	-2.3292148446412	0
4.9222559921608	-2.7486617302843	0
6.1971181697204	-2.8540900672423	0
7.0212731257583	-2.6573891139302	0
4.0890680178231	-0.80500860446348	0
3.2172049700142	-0.97874737870402	0
3.8193790308275	-1.6629755476804	0
8.3416777787407	-5.1833881033199	0
7.5572275114128	-4.102709076165	0
3.5794694184609	-3.3774522548669	0
7.6088637440976	-3.3061553813084	0
8.0396305197243	-2.3832345250595	0
7.2501992898856	-1.8315241352993	0
7.8258608922489	-1.346118462439	0
7.0328259049448	-0.91494393004697	0
6.369261658854	-1.8257400853179	0
4.9672453990647	-2.0402364640941	0
5.4220884530876	-1.389640384905	0
4.5794425818972	-1.4753994016058	0
0	-6	0
0.75115345976489	-6.2921750472139	0
0.77632627405085	-5.2976449958587	0
2.3034188316378	-3.3286511292171	0
1.9431807852442	-3.7381185229599	0
2.5260903249391	-3.8678537932067	0
7.8699182234219	-6.2360358230764	0
7.6542578277896	-6.8451202459774	0
8.2655479110563	-3.2088163092203	0
3.2040934351226	-3.9685105959404	0
0.734375	0	0
0	-1	0
0.61443623639171	-1.1818049446663	0
0	-2	0
0.52853507360799	-2.6508136276114	0
1.0036880328999	-1.9729809919743	0
1.8146822935359	-3.1226852479236	0
1.4514208372378	-3.5701769998337	0
1.5278007240401	-4.8942112229174	0
0	-4	0
3.5512838533278	-2.5599597745499	0
1.4868063674291	-4.1631811125537	0
2.9034746231188	-3.1852042312138	0
2.8721321228156	-2.4183325865144	0
4.3412571586717	-2.2647172445937	0
2	-8	0
2.6659100987264	-6.9662786892768	0
1.8544139966028	-7.1043716111303	0
0.5079131956491	-3.2995937075409	0
1.1307352897668	-2.9800868127229	0
3.4693050880931	-6.6981202008635	0
1.6868535240114	-1.6376438628027	0
3.440232320933	-7.3347847410184	0
3	-8	0
1	-8	0
0.61268418967956	-7.4660603407378	0
0	-8	0
0	-3	0
4.8535502314262	-0.7073385918545	0
3.1733778454903	-1.8751252197409	0
2.9375	0	0
3.671875	0	0
4.40625	0	0
2.4330107061784	-0.73760748326961	0
1.3333015130559	-0.9315959698365	0
1.8766050689234	-0.56293537948883	0
1.948537503014	-1.1293433308992	0
0	0	0
2.203125	0	0
1.46875	0	0
6.1316050836961	-0.78450548287625	0
5.484535700698	-0.57615159438342	0
7.7277917280599	-0.60111054434286	0
8.400860817486	-5.8876225358776	0
9.5630097790906	-2.94368847844	0
5.875	0	0
6.609375	0	0
8.3805420158992	-0.72883907306127	0
8.078125	0	0
5.140625	0	0
7.34375	0	0
1.9753969304143	-6.5108597214121	0
0	-7	0
1.3689252361078	-6.6773065404534	0
1.271866542911	-7.3681658699021	0
0.79843667000352	-6.9610346280904	0
0	-5	0
8.0934491987285	-3.7402798363746	0
8.3526223075714	-4.3862968716516	0
8.8812932222946	-4.8495908353712	0
9.2495369766643	-4.2685648122416	0
7.5241925852712	-7.4735725008744	0
7	-8	0
9.0708714075818	-5.4858233310482	0
10.678386559089	-3.3272598792468	0
10.804571464251	-4.3307964217889	0
11.41891875058	-3.7351133902904	0
8	-8	0
10	-8	0
9	-8	0
9.2512683726635	-6.7158200190867	0
8.5	-8	0
9.6398646977454	-6.0569476299073	0
12	-8	0
11.701190691715	-7.0178795707848	0
11.202571672499	-7.4461441005432	0
8.9599697063497	-6.1597869948541	0
11.233165938823	-5.1597635949138	0
10.502612452147	-5.0816627650991	0
10.624270039711	-5.9297050009808	0
10.875476750227	-6.8176234265893	0
11.297502262295	-6.4093708180867	0
9.4009670005084	-3.4945762481523	0
8.704031409935	-3.6771790743333	0
9.8711091463184	-5.3516531775058	0
9.4076131337331	-4.9197440922233	0
8.6148589807278	-1.5468768747086	0
9.9767463500217	-4.640261707511	0
10.015519359214	-3.8912900484212	0
9.9562334753365	-3.2602198917368	0
11.542293243434	-5.8727156156799	0
11.533831101922	-2.9603017492445	0
12.154184826355	-5.3073953175186	0
12.205039694262	-6.0302968717877	0
12.565653848073	-5.7317611342705	0
12.283650708161	-3.5816924475913	0
10.110157211253	-2.637865210986	0
9.8587877567004	-2.0420494257341	0
10.28125	0	0
9.546875	0	0
9.9649662999966	-0.60627195995189	0
12.70465236974	-4.5100365304716	0
11.770287658143	-4.440650932946	0
11.617832441555	-2.0064323806666	0
10.859498247607	-2.4328581497823	0
8.8125	0	0
10.705622488639	-0.78896034843682	0
15.06553672398	-6.276028353677	0
15.680974072729	-5.7849759373399	0
14.632715739621	-5.6685994613595	0
12.365976924043	-6.6743633558583	0
11.813005918224	-6.4031309146134	0
14.38647420984	-4.8199859379677	0
14.194804380357	-4.0595150993604	0
13.597094220068	-4.6359830373028	0
12.293397764589	-2.6540853557846	0
13.34178425423	-3.6968226496998	0
10.821707318997	-1.6462338807521	0
10.342661210516	-2.0275986905901	0
14.010238366691	-2.1919402828937	0
13.55729974309	-2.7484698825173	0
14.240137580401	-2.6619477668096	0
12.917051988236	-2.4369691973858	0
12.879625457607	-3.0259697333822	0
15.191535490918	-4.924313627692	0
12.484375	0	0
12.086565658987	-0.57709382902849	0
12.758125436677	-1.01796672845	0
11.96236122703	-1.2284582090393	0
11.015625	0	0
11.318264939988	-1.2611066042886	0
11.475466841094	-0.64060339861446	0
12.852009680744	-6.1773420833061	0
13.072225890854	-5.405038899661	0
11.75	0	0
13.886294673494	-5.3329592763524	0
13.758879284747	-6.1456668635604	0
13.226726949397	-7.0485511502546	0
12.486647683567	-1.8707614222818	0
16.082690019272	-4.8838028544159	0
15.588249595521	-4.0858229696258	0
13.21875	0	0
13.352540526941	-0.46325628238061	0
12.45258115371	-7.3503371603357	0
13	-8	0
14.832628878105	-4.3011594131318	0
14.166838931635	-3.2806882428375	0
14.837679056872	-2.8631337404129	0
14.652463129072	-2.1856472856178	0
13.572273204992	-1.0938488821995	0
14.257450469287	-1.4834733391051	0
14.136499103215	-0.64728730968009	0
11	-8	0
14.906932583358	-6.8595391989725	0
14.50530276564	-6.3880454815302	0
14.180657895825	-6.9822987629868	0
14	-8	0
13.361788428331	-1.8441238959815	0
13.953125	0	0
14.860489128315	-3.6273128087287	0
15.023516208248	-0.78525331169581	0
14.6875	0	0
16.433738536114	-4.1591436718784	0
16.8292022244	-4.7493086727781	0
16.492671238228	-2.7570829143144	0
15.55378227869	-2.2395328783323	0
15.583809923027	-3.1816603901125	0
16.41147786877	-1.8589837305121	0
17.312602990133	-1.9876176433335	0
15.06680452402	-1.5886399739304	0
15.85107129564	-1.2339717480057	0
16.195600797192	-3.5412022318805	0
17.114058842164	-4.1917737383704	0
16.896094149161	-3.5575267671562	0
16.811448977771	-5.5938104794507	0
17.491952228104	-2.9614820164517	0
16.15625	0	0
15.750627365419	-0.51721425022099	0
16.30045814652	-0.5635762108592	0
15.421875	0	0
15	-8	0
16	-8	0
22.756862915706	-1.8570017610221	0
22.344534171134	-2.5456024048519	0
22.969878419642	-2.6472927337462	0
20.044005905968	-2.534398285706	0
19.517693861884	-1.7376224821256	0
19.295726866527	-2.3913520544351	0
16.40676546016	-6.4555129050585	0
17.018238820229	-7.033983679535	0
17.634670927242	-3.7791145708047	0
18.858048753151	-0.56694169011229	0
19.09375	0	0
18.359375	0	0
16.853086776378	-1.0597567726391	0
18.167541581048	-2.4176717555584	0
17.627135722909	-1.2162305966125	0
16.890625	0	0
18.803920155665	-2.6260600115479	0
18.805716510343	-2.0028710992174	0
17.596801646645	-0.52497032841282	0
18.243386992724	-0.86293430039319	0
18.167765680984	-1.6205595504649	0
18.884682322029	-1.2506979597346	0
19.738008291269	-0.72929214829284	0
17.625	0	0
17.30462052823	-4.6267683525864	0
20.055946740925	-4.2871034324514	0
19.251021539757	-4.0538766602334	0
19.724539057624	-4.9713633198339	0
14.698061916436	-7.4441215935864	0
17.612789726548	-7.4211394446211	0
16.96875	-8	0
17.9375	-8	0
[...]
CELL_DATA 1349
SCALARS Coverage double 1
LOOKUP_TABLE default
0.78844841949444 0.39151454613155 -0.67150255309267 -0.3112748743365 -0.68942101685683 0.49265825549527 0.052881266857107 0.050321310431867 0.33868428705689 -0.6569424399511 -0.76197765965939 -0.63773219314602 -1.1248076901826 -0.56837749030401 -0.52903393466341 -0.058526848925926 -0.86586808872353 -0.64467571048665 -0.60430882660972 -0.59897583977289 -0.61459333334527 -0.58325847801052 -0.87703871954182 -0.53913592355818 -0.71392400546809 -0.63238172101703 -1.1365756873214 -0.64431158984411 -0.7063757094342 -0.90658852833037 -0.65008858743508 -0.42154655745313 -0.75722173847094 -0.38992320494388 -0.92953824184644 -0.67450207738235 -0.59286528188795 -0.52609133754518 -0.23319116085756 -0.90966854128675 -0.67036635667985 -0.6500917973662 -0.39534750100532 -1.0657255366825 -0.92008298994756 -0.57644117481116 -0.75737217139087 -0.86414507601361 -0.23263368132824 -0.44076680375197 -0.43744454855867 -0.33860084335979 -0.49275523010234 -0.31906749040181 -0.10548375763208 -0.9544796389152 -0.53461154753696 -0.32311595137032 -0.59629040695992 -0.45724329742791 -0.54502357078563 -0.25775317043308 -0.44923901063187 0.048268817770157 -0.16298687007292 -0.14739794558098 -0.58939570284022 -0.60343424807495 -0.012657252515185 -0.16973869705916 0.16272699641777 -0.091291178438073 -0.64206184863695 -0.57367837866467 -0.60043757926117 -0.35663717834195 -0.3306039162675 -0.98728804615813 0.020409164929371 0.36010620844283 -0.027515910539281 -0.011797520298244 0.11564340921163 0.019941931092434 0.10237544006208 0.098363327915717 -0.78741547469125 -0.57245181274559 -0.61254351640686 0.023450027208175 -0.54264764320225 -0.84159836090124 0.18146299206186 -0.36629701402501 -0.1584351996483 -0.47335743645419 -0.7838043530342 -0.89985926865445 -0.78154370582929 -0.35889645799659 -0.67730925391898 -1.187220451253 -0.39412474666754 0.23410069974122 0.033853374839967 -0.24358020661142 0.11833887006661 -0.04594872156481 -0.57324338709233 -0.74916447080476 -0.50390935576349 -0.59288823623374 -0.73602585800674 -0.60790417906958 -0.76942662614652 -0.2621961760151 -0.80730100934691 -0.016747139731544 -0.62699820076677 -1.2427216653373 -0.3517553135555 -0.99155826939903 -0.84666738029874 0.20397569466701 -0.43593054087679 -0.37548033489638 -0.72616660179784 0.14623271871655 -0.46452510973038 -0.55189939117753 -1.0006317109841 -0.46384738350189 -0.51928022651027 -1.0325851558803 -1.0182677374669 -0.84293016821618 -0.10708965434949 -0.12443181138323 0.093555423399091 -0.19644643729937 -0.98805317156937 -0.21084354430232 -1.2139603743606 0.74836725014472 0.10796388534686 -0.03074458899515 0.048797435128354 -0.30842380648403 0.067716210648718 0.32390213852854 -0.088226253437633 1.0817310287718 0.77593263639651 0.1914059487271 -0.082032761129148 0.21420134558528 0.41262597498939 0.10221580805402 0.17847717570342 1.3518518372026 0.076410111398864 0.12485524499801 0.73325381464421 0.1783034478637 1.0942378113067 0.42024657940431 0.7785197555397 0.72472964642499 0.74346667471997 0.39726260903203 0.54392612251092 0.079165008540113 0.61463820468897 -0.62442977925374 0.084904436300033 1.0465173693521 0.97110350584823 0.88195790288706 -0.32477643290433 -0.52357750829843 -0.058240046378275 -0.25237327449786 0.27451353489185 0.56123294889384 0.31267566371632 0.81237238227237 0.37313952857287 0.30489672558599 1.2183891364942 1.0130088144612 0.29429561553793 0.74430337855063 0.78164035128479 0.87165956679069 -1.0233621108836 -0.83362381531237 -1.1548358940474 -1.121516637255 -0.38593328602846 -1.1211266034671 -1.092985651746 -1.1630068715174 -1.1536033943129 -0.65963762338766 -0.92375047627469 -0.97031243523624 -0.23879666450787 -0.88304981976523 -0.22197700012103 -0.96833487549043 -0.026929106598515 -0.015069628989362 0.72883682009646 -0.68098036271031 0.32850570754168 -0.021341916621884 -0.65273878053436 -0.26294584764828 0.014017391462395 0.068329944694612 -0.097646569551002 0.073803815074901 -1.0544893664877 0.095399194119177 -0.11580628690874 -0.10594767828151 -0.26309025568157 -0.42746583499243 -0.52450583466273 -0.3288969786392 -0.62160676124915 -0.46551764528846 -0.63298160749878 -0.58398246762368 -0.57530071799604 -0.55308276397826 -0.52225306664404 -0.56484200385125 -0.64910588796117 -0.55386843335486 0.005324250931883 -0.57218729568287 -0.61347306273417 -0.53106560895652 -0.53459214913003 -0.6172396500395 -0.6401088502912 -0.56684239949494 -0.58373359327577 -0.54005327201654 -0.61464498970418 -0.62380360385175 -0.66322696440009 -0.54363628129889 -0.66337184447557 -0.30636795074676 -0.63175956084123 -0.63342841582108 -0.63281104597701 -0.6136278902935 -0.66944010771349 -0.62776118230838 -0.047750926394537 -0.56789575324615 -0.55455939755756 -0.22635705878849 -0.18892524290231 -0.17569155798189 -0.076460529888707 -0.42339810188696 -0.10703376175833 -0.22442054047498 0.14367307722995 -0.4918463195541 -0.26401575909879 -0.62960537373474 -0.39327276494593 -0.66472132853074 -0.64098972651142 -0.42267095157374 -0.13305369175739 -0.66305938853372 -0.65667781156912 -0.25436009661572 0.023441264723127 -0.37309790372999 0.69560654646611 -0.0065377629755406 -0.041955652498187 -0.37625890272603 -0.035733581789394 -0.48790010381053 -0.1747646572293 -0.51815776971678 -0.56522793255197 -0.63586015485485 -0.53800144865931 -0.48130352626345 0.1644116423056 -0.48247872128004 0.22686888945409 0.1578075718732 -0.03150822168997 0.085347956688369 0.1968562125927 1.0935359048011 1.2476636970645 -0.0031321714339206 0.37660551439212 0.68943107492376 0.89551498148814 0.48499854061267 0.47333601541393 0.23607728674178 1.3355806982862 1.0107757299682 0.36740887930189 0.66705890785534 0.2802377330661 0.96513465569352 -1.3281593871318 -1.1609457483575 -1.1710401409592 0.49584575391212 0.3996369887324 0.24122311907064 -0.29960240355695 -0.85256564694937 -0.85368961885363 -0.61347592837343 -0.56595102296635 -0.46764691025855 -0.57401920377147 -0.038441065137111 -0.026199628889881 -0.31164968143511 -0.14923182823802 0.30419019913082 0.1912976226744 -0.28853273317089 -0.044258633211689 0.40042030736071 0.35560274937499 -0.023810888250864 0.43962684862432 0.38402626192261 -0.37439620970067 0.38878673712059 0.38906750189979 0.96877126006539 0.21487338810683 0.75126484429275 1.352479212455 0.27719790034207 0.56576214015481 0.40190253422096 0.22422988907892 0.34868213926406 0.18241701484934 0.093547245605552 0.26844390179112 0.061208667621284 0.50955230999675 0.75021017390096 1.0572228822582 0.72020083354447 0.97386081882284 -0.46745004714296 1.02487756512 -0.29100301806922 -0.56465384024166 -0.049014073666138 -0.47315182476388 1.0630274568895 -0.53664418336154 -0.30300266232614 -0.33076732140801 -0.34433582369612 -0.53059376592998 -0.31621118721391 -0.57186402927396 0.54865592712936 -0.13060108021501 -0.44253084211084 1.1104016504473 -0.45336501424724 -0.50047134314944 0.47890109128483 -0.18343360507316 -0.42387150769023 0.31816075990596 0.46555600542248 0.67505855694763 -1.1270463244469 -1.2595253544988 -0.563929760031 -0.57948369262364 -0.46043521929496 -0.54794839487296 -0.56779171436485 -0.60624075955128 -0.60952638164757 -0.58833374430251 -0.52076611476798 -0.55994883108475 -0.45619104035242 -0.50601022064571 -0.44213402576188 -0.50612894842529 -0.4843499001999 1.3446494973365 0.57961776674499 0.43647668126328 0.67084079443004 0.85324282315524 1.0347758551275 0.47666531703079 0.47445549531093 1.1049206829268 0.43858570629155 0.43850207895697 0.30046030409123 0.45689278971003 0.28164036233626 0.26784500559062 0.34855058989866 1.4904941318838 0.32444113280405 1.0977525026615 0.040105949994447 0.14331074943184 -0.43111430915729 -0.12814403272099 -0.48885105694212 -0.45055103661819 -0.11651460811898 0.48283044603866 0.47953995352397 0.45372400999653 -0.61955611883029 -0.56220339550131 -0.62294868976444 -0.6079267122892 0.78084422999674 0.41187389004446 0.38091052805416 0.42166105343636 0.183292840394 0.6474911235272 0.42045157055677 0.3942287815946 0.46366743658728 0.7606085775667 0.10384872820887 0.21689694567116 0.34589160081952 0.36940472910018 -0.19086332925931 0.47487579874114 0.17885524832051 0.24808697099676 0.16591672030152 0.42632337623484 -0.39184053566751 1.17762080274 0.37651564098827 0.48507358977225 0.43551867539029 0.46860238133701 1.1430470727829 0.59499360239915 1.2390764398711 1.1878509922362 -0.23974752596796 0.46491203554589 0.92305238691057 -0.50037083799465 0.54568852229104 -0.16065924305041 0.55456996571177 0.51406895798234 -0.19753793627469 -0.12938271472563 1.3584057973505 -0.27909978519629 0.89373765986792 0.48766049116805 0.16427492122518 0.1482146942453 -0.44702928114072 1.338130196894 0.51055048036173 0.45211006636688 0.50634484266576 0.53021919698878 0.53977155871398 1.3958916047356 0.49668734924512 0.88990672696579 0.79827620804877 1.1393338619425 1.1231142426876 0.93302573650388 0.47125167232167 1.1265110052756 0.64815672184961 0.45694889425665 1.0975941064146 1.337601714858 0.8232980337912 -0.096884786453716 1.1243718900287 -0.20460309815217 -0.56049027050538 -0.43304785311382 -0.51618930665532 -0.45234271201231 -0.36399550542918 -0.049030126685953 -0.39104409652118 -0.36912067189065 -0.16548944041745 -0.33911201124788 -0.3112035083243 0.44431646084127 -0.27444655098915 -0.34992647435699 -0.44287607226689 -0.10520126148325 -0.43370006273255 -0.15701584682987 -0.50504338675765 -0.14325046152623 -0.32063716072308 -0.48219073603755 -0.432477774949 -0.43193413782186 -0.051514255885509 -0.30899649185632 -0.16232688069299 -0.43727822373655 0.054720311238735 -0.39264558594011 -0.16002295125942 0.22045605735332 -0.029595374047502 -0.28164879113806 1.1152716479009 0.15005714106991 -0.49670850058852 -0.077774116209423 0.0026282275412187 -0.40221064866802 0.021137685557798 -0.12228221280836 0.047478258862616 -0.1232745549773 -0.4704407040993 0.068906249128591 -0.36940315893007 -0.39152451952502 -0.38372493148359 0.10055686734096 -0.25191351418641 0.094611340061086 -0.4677481961585 -0.44094266599298 0.088342362129035 0.34701422287234 -0.5199259980707 -0.53808840890311 -0.1289980588116 0.5591774414024 -0.49982319706615 -0.49465485941625 -0.4763552034537 -0.17088535429295 -0.19364920116331 -0.4442671186153 0.078258852254726 -0.41842190568671 -0.30759398428214 0.5134842732739 0.32754520979918 0.49383879982705 -0.10807804959309 0.11873909330816 -0.12155156860922 0.74266254314631 0.45750511677211 0.46968087006695 0.23252476663064 0.54108698022931 0.3589353225234 0.27720043340299 -0.096867131131694 -0.31042067041455 0.092738797392413 -0.21872710279828 -0.35434719063666 -0.17582805147439 -0.57826639673664 -0.2472653456637 -0.47759534744055 -0.54889360983684 -0.36514904899899 -0.56312250978873 -0.15786806706843 0.062304939148369 -0.49481892948331 -0.47750590085383 -0.53678576532939 -0.43918059858721 -0.33652593249291 -0.13432435533369 0.82557609778084 1.0880815688804 0.86628905089093 0.6304718654487 0.64461038137613 0.53181430804621 1.4038731556239 0.47156691316942 0.51267376278725 0.49347520040333 0.55163311577079 0.46156233842681 1.2655279772829 0.48976935864949 -0.26480408868452 0.054071032968951 -0.47213933841888 -0.3808172625989 -0.2252348050893 -0.33307592093463 -0.20658407055476 -0.38620768864877 0.075766706162072 -0.048665126065489 -0.16458400791401 -0.36851637729957 -0.40044319718795 0.10946936517663 -0.04322685831113 -0.12948256325699 -0.15584535721837 -0.48332919634961 -0.39454153891042 -0.34121073212741 0.015418810877371 -0.23138341563557 -0.22917147901819 -0.0085536725503233 0.009327839979806 -0.46204194354412 0.53273666623047 -0.034143355598521 -0.36076054927708 0.27792354073628 0.14772425831335 -0.48278043597387 -0.49499935299754 0.32575953073049 0.28929640749177 -0.46409629275704 -0.44597345480437 0.46608306785351 0.51386136868578 -0.11297107531673 0.10499906356655 -0.42323632517571 0.095449882874621 0.13793456680047 1.0951936965092 0.54528589130823 0.53786268599515 -0.11862654443889 0.42533971464777 0.54539151344026 -0.1234784015971 1.1974452089773 0.4683298885952 0.51738379319309 0.51686119511097 0.87128517696791 1.3483173558422 0.51726943587094 1.0730064813762 0.56743514550593 0.66239804259621 -0.096349975646235 1.0454657701911 0.69605505287633 1.0200697072024 0.076672433528416 0.091989002137668 -0.31583220456352 0.073028059997762 -0.41412341792206 0.083843128012849 0.060030312571342 -0.38408685387039 0.088829679502892 0.49266167802215 0.49394423585289 -0.23516316675639 -0.44055651277027 0.54828734397948 -0.14601822707124 -0.22911999565199 -0.15184174042923 -0.17771474921386 0.073745188726048 0.88186231955292 0.028951745250808 -0.40851854712643 0.02413232300217 -0.32419639449442 -0.49259212175353 -0.41889139714133 -0.42472064328246 -0.46492418591306 -0.33996219450934 -0.33203007957763 -0.47083918382001 -0.46736481398358 0.51742874202421 -0.48960456817813 -0.44129002745133 -0.4941103530282 -0.45754802712374 -0.33630865429016 -0.054817957628589 -0.006767068028693 -0.47479817584897 -0.36484126447945 -0.1747280201859 -0.16641716602843 -0.34106954488186 -0.45481134565225 -0.2015210910783 -0.0021394410293624 -0.0065473050993252 -0.17391666896451 -0.14400339324441 0.54321034370956 -0.4134876486162 -0.25606423775001 0.47846274890394 0.37392037511303 -0.4762556369241 -0.33242012220926 0.39544741782573 0.19248047139734 0.10328696858225 -0.45734462075972 0.53474105849194 0.4478741994961 0.2264613428642 -0.17961066713284 -0.3474893671827 0.20899549738745 0.60190596443348 0.360752154837 1.1653582922248 0.5530492850994 0.28709728820899 0.013475344235014 -0.39984706775526 0.52122277934604 0.45481751028616 -0.49385425019569 -0.43528595903915 0.50816396631256 -0.19097833820887 -0.33054082545848 0.49857242828543 0.34585122886564 1.1682814431334 0.52184964987575 0.50022775939667 0.53953680707801 0.63318122652549 1.3433649284525 0.50670011005493 0.47307763894533 1.0070305596696 1.1766078069285 0.24099577591013 0.36281850990608 -0.13449543595346 0.43740117528061 0.14317777798415 0.48084133747219 0.60602576027567 1.1186020623636 0.54176752384564 1.0199982735795 0.94309844596718 0.46879316032122 0.49081898985192 0.81200809299725 -0.13882512562661 1.0423707539568 0.41643680300099 1.4102995507721 0.0051882728065978 -0.11954026169465 -0.17663253849 -0.15552340314035 -0.022012457688426 -0.066568349340303 -0.1252641458478 -0.12542055305647 -0.093648256176113 -0.088624631746896 -0.13792415726004 -0.31336683441123 -0.35877333549586 -0.43312314500169 -0.13261769166741 -0.19151901887785 -0.14469622235461 -0.10162869416689 -0.20810273939743 -0.20198624765304 -0.17407541724733 -0.28960830202453 -0.22973276410487 -0.20201432410246 -0.21795853983274 -0.22059763284256 -0.15839634068167 -0.055412445919522 -0.16302519871658 -0.271465206256 -0.17939248366519 -0.18050682181058 -0.31462443689089 -0.31988597278179 -0.28009960179464 -0.2763360885961 -0.24497871995455 -0.24986979912449 -0.21612806879897 -0.0058044361042098 -0.12453037780442 0.13020153550999 -0.15584969710793 -0.29816555314355 -0.25431183225436 0.43636303671435 -0.152575160239 -0.0086578841045776 -0.18608812631076 0.058369325436124 -0.20735992183475 0.80006391092038 -0.36254479570768 -0.25501468586616 -0.019027945466818 0.010014916911884 0.1897117713093 -0.040603106850178 0.32711986424902 -0.27517470376155 0.24131931242295 -0.078330415457955 0.30523619812373 0.50533246076681 -0.096132674934083 -0.46746282385901 0.19403830126657 -0.13292552874554 0.16047424961679 -0.26677901688795 0.096403701783908 0.3523758761261 0.36830824154422 -0.2957898308438 0.40026951131873 0.27958663831277 0.72568059830817 -0.35956544933213 0.44112591454026 0.78464599931471 0.14170473944547 0.1281309335489 0.58839071894985 0.11667902222024 0.074474916639901 -0.24477637987798 -0.3657773796535 -0.39312009726033 -0.21282909610907 -0.52500337900356 -0.47781955077463 -0.27474139031766 0.42192028809476 0.19232665333937 0.46631809239479 -0.18154034689037 0.097974581811759 0.29798511731068 -0.07608580757498 -0.47060727665836 -0.35315853906728 -0.072737666127178 0.18743442131066 0.21517645827655 -0.14393943235376 -0.40398664413225 -0.36742750443906 -0.41493014809019 -0.52585563995559 -0.40672774361711 -0.23501232263404 -0.36487212287387 -0.39489923330024 1.0699560307569 1.4782684615694 1.4435081954905 0.83183418876465 0.68417411273969 0.70766533995132 0.48303846413997 0.52168528456268 1.0719676992266 0.61230653165352 0.5389930070412 0.46686822876341 0.48789912572231 0.47937849953329 0.48950180131292 0.4863186399269 0.4664055145369 0.32031640191043 0.47414271242983 0.46580091930237 1.014435039885 0.47144107238374 0.30945445311805 0.29093085122397 0.32449463306787 0.35660558017659 0.61420851412252 0.46703566881601 1.3441315443252 0.86563319000355 1.3105126235407 0.41253423541664 0.79038685483801 1.374000988135 1.0412581926759 0.69445130007828 0.50909839502276 0.30671415750485 0.97898744745514 0.83550840197011 0.43091386368469 1.0810411125551 0.72061827730824 1.1949023377602 1.0716750151498 1.0553359005245 0.82274925042255 0.29908063522479 0.38775405819021 0.35551293099108 1.2211043807654 0.27764702679429 0.28930992337303 0.59003300075494 0.34545949651982 0.89073125306074 0.97798080677907 0.53002435696343 0.99712986306159 0.49030236134794 0.29993819975824 1.2955719840388 0.29766939742316 0.21110956009399 0.53874546825473 0.51896585960157 0.74568896375849 0.27950667578246 1.0448855552457 0.96849236846955 1.3072561680145 0.70503311209376 0.11086750409258 0.55132517548166 0.9158782309823 0.89974408950411 0.69292472594374 0.91486554039662 1.2190810389795 0.39179833484181 0.27113122713176 0.31577137937597 0.040527716186869 1.2297526282472 0.32752455960689 0.25108051785229 0.25235686384375 0.36144252099448 0.26806558558738 0.9104603389777 0.28909294644064 0.24374381903696 0.60937503466128 0.11078189167636 0.22356277185333 0.58455650152653 0.43695235088875 0.18083384149418 1.0139625927088 0.22653660669932 0.18522675045186 -0.10808236888998 -0.038842243424671 0.13274526031595 0.76599959722801 0.026904888810919 0.2164162442829 -0.17590634615899 -0.18554159756134 0.39981622012682 0.10103898094569 0.99088688928644 0.14769504200977 0.11615760436954 -0.012686541285896 -0.046181191018687 -0.22945049634467 -0.24398395884297 0.13929300036176 0.25318924914451 -0.060133743506699 0.09276375984305 -0.25337387736931 -0.27614520866876 0.015502698714347 0.77929101138516 0.3680734173855 1.1508051589097 0.031388064088415 0.14939757749094 0.01954938368716 0.66252421793591 0.36652877571199 0.46338556779463 0.28462739432044 -0.024895964825539 0.074120542025719 0.2499687834862 0.97625604912912 0.031017070904804 0.18321678004887 0.34786737733165 0.71710555155662 0.07543924778951 0.10081366362927 0.1993412409594 0.015028155424701 0.057784803026455 -0.19500747003977 -0.20344154280912 -0.24342091847028 -0.22880310840769 -0.16325628162583 -0.2463260496597 -0.21179978885927 -0.24144330528155 -0.25360749952156 -0.24141932885753 -0.30925953204745 -0.23791951890216 -0.23402091780432 -0.25643777301394 -0.19936898543329 -0.25077447857864 -0.21708543534401 -0.14375802678866 -0.037092465556496 -0.26351331451352 -0.24840438496865 -0.25381113132382 -0.11516974570938 -0.17965041122102 -0.13674026030286 -0.11303025208976 -0.082844661725501 -0.060785941844599 0.0018389653675728 -0.10705679448075 -0.0056820484089536 -0.10559420711209 -0.030103822532782 -0.037480381035226 -0.018653210210989 -0.016982164407388 0.058748841500639 -0.099589875023704 -0.26032392261826 0.001312428938198 -0.048987932038724 -0.094879478202598 -0.026399121410839 -0.15114334569698 -0.24450824291883 -0.23442849854694 -0.23801086792355 -0.009758499906381 0.015091989622824 -0.18469671570141 -0.20083987883214 0.087836901398507 0.15941258117555 -0.33710770187431 -0.19186662637418 0.080466709343815 0.13967236254504 -0.44748891389951 -0.23985066972119 0.12232002825506 0.023035710258972 0.17908026805509 -0.0095339096516428 0.11958134926825 0.089928843693754 -0.0020519619794028 -0.02654606610845 0.018077400449403 0.027704891910588 0.067988792301649 0.085495912170666 -0.028060493136051 -0.0869925