# vtk DataFile Version 3.0
d-2__ created by libgimli-v1.4.0-22-g2d6c0250
ASCII
DATASET UNSTRUCTURED_GRID
POINTS 739 double
35.25	0	0
34.766081542978	-0.82021566092004	0
35.632578047987	-0.72883630452407	0
24.024974223709	-3.3959938323052	0
23.653360812241	-2.7288670633191	0
23.229010511392	-3.3529576731171	0
4.0418655321018	-4.0506862785614	0
3.4460515782386	-4.7439961566826	0
4.2311515920029	-5.0809003825016	0
15.407766344465	-7.3730645449994	0
16.233299169082	-7.2585920105004	0
15.614499752591	-6.6705036155538	0
0.87966150056611	-3.868344094725	0
0.53946997502051	-4.5402672655454	0
1.0423668045247	-4.5416868935558	0
10.044780655634	-1.38528895599	0
9.2449702923403	-0.85837555044783	0
9.345362148561	-1.7444613449413	0
9.4404614270197	-2.4142126442597	0
8.8670364751027	-2.2005241160204	0
8.8981197610435	-2.9065452242835	0
40.643431096227	-1.8007378109998	0
40.90951054121	-2.5500139899776	0
41.411624169268	-1.5999858451814	0
30.395367991702	-1.9693062955434	0
29.554682165597	-1.8859186953224	0
29.759185494429	-2.7694853144209	0
5.1523452594718	-5.0731882456395	0
4.7333838933121	-4.4274311535604	0
4.8293365853565	-6.5416884368369	0
4.6531391287001	-7.357849878802	0
5.3618836946219	-7.2453518540761	0
2.420340802333	-5.9803755969777	0
2.2095578170366	-5.1629239562001	0
1.5749245865607	-5.8280971878667	0
6.4631285840114	-5.7234774575293	0
7.0614370368234	-5.3339000067243	0
6.4310774709665	-5.0305550495624	0
6	-8	0
6.8149088859959	-7.1369339193422	0
6.0380890087879	-7.0593430649453	0
2.337095399571	-2.7024130282098	0
2.4182611852565	-1.7461085668484	0
1.7314028473745	-2.3660256592611	0
4.7120578677277	-5.728342736769	0
4.0027109767498	-6.0857371454819	0
5.6471126438986	-6.5176179037	0
5.8650720782736	-5.3997839601918	0
5.3575291744975	-5.8713437985688	0
8.8206498418204	-7.3549687861435	0
8.4413342175328	-6.6552453659709	0
8.1531633313928	-7.3876617519353	0
5.9380884743294	-5.9807090902451	0
6.340105930545	-6.4315959866684	0
4.0658421990741	-7.0053381340916	0
5.3593802187152	-4.2767652155575	0
5.858312820725	-4.714231643898	0
3.5539747292485	-5.4650356113086	0
3.1722088864894	-6.0889775775066	0
4	-8	0
5	-8	0
4.9041715027695	-3.6404381370114	0
6.3841275467394	-4.4206981320864	0
6.7082817957996	-3.6916407749453	0
5.9717371155479	-4.0622525356292	0
10.455786908479	-7.3899923003538	0
10.069732056581	-6.7108805202894	0
9.5950164365213	-7.3631486063629	0
2.7298127856572	-4.5788385214117	0
2.0726289944547	-4.3946730213117	0
7.1327228036634	-6.1871299893166	0
5.9922272054042	-3.4924814834306	0
4.2186757807963	-3.1085730056651	0
5.5515996961085	-3.721657217286	0
5.5244600938001	-3.1299237043516	0
2.921729566446	-5.3311984568052	0
6.9648131056334	-4.5768127754969	0
7.6649814503624	-4.8682074785256	0
7.7420202437717	-5.6148710814956	0
5.5676567450914	-2.3292148446412	0
4.9222559921608	-2.7486617302843	0
6.1971181697204	-2.8540900672423	0
7.0212731257583	-2.6573891139302	0
4.0890680178231	-0.80500860446348	0
3.2172049700142	-0.97874737870402	0
3.8193790308275	-1.6629755476804	0
8.3416777787407	-5.1833881033199	0
7.5572275114128	-4.102709076165	0
3.5794694184609	-3.3774522548669	0
7.6088637440976	-3.3061553813084	0
8.0396305197243	-2.3832345250595	0
7.2501992898856	-1.8315241352993	0
7.8258608922489	-1.346118462439	0
7.0328259049448	-0.91494393004697	0
6.369261658854	-1.8257400853179	0
4.9672453990647	-2.0402364640941	0
5.4220884530876	-1.389640384905	0
4.5794425818972	-1.4753994016058	0
0	-6	0
0.75115345976489	-6.2921750472139	0
0.77632627405085	-5.2976449958587	0
2.3034188316378	-3.3286511292171	0
1.9431807852442	-3.7381185229599	0
2.5260903249391	-3.8678537932067	0
7.8699182234219	-6.2360358230764	0
7.6542578277896	-6.8451202459774	0
8.2655479110563	-3.2088163092203	0
3.2040934351226	-3.9685105959404	0
0.734375	0	0
0	-1	0
0.61443623639171	-1.1818049446663	0
0	-2	0
0.52853507360799	-2.6508136276114	0
1.0036880328999	-1.9729809919743	0
1.8146822935359	-3.1226852479236	0
1.4514208372378	-3.5701769998337	0
1.5278007240401	-4.8942112229174	0
0	-4	0
3.5512838533278	-2.5599597745499	0
1.4868063674291	-4.1631811125537	0
2.9034746231188	-3.1852042312138	0
2.8721321228156	-2.4183325865144	0
4.3412571586717	-2.2647172445937	0
2	-8	0
2.6659100987264	-6.9662786892768	0
1.8544139966028	-7.1043716111303	0
0.5079131956491	-3.2995937075409	0
1.1307352897668	-2.9800868127229	0
3.4693050880931	-6.6981202008635	0
1.6868535240114	-1.6376438628027	0
3.440232320933	-7.3347847410184	0
3	-8	0
1	-8	0
0.61268418967956	-7.4660603407378	0
0	-8	0
0	-3	0
4.8535502314262	-0.7073385918545	0
3.1733778454903	-1.8751252197409	0
2.9375	0	0
3.671875	0	0
4.40625	0	0
2.4330107061784	-0.73760748326961	0
1.3333015130559	-0.9315959698365	0
1.8766050689234	-0.56293537948883	0
1.948537503014	-1.1293433308992	0
0	0	0
2.203125	0	0
1.46875	0	0
6.1316050836961	-0.78450548287625	0
5.484535700698	-0.57615159438342	0
7.7277917280599	-0.60111054434286	0
8.400860817486	-5.8876225358776	0
9.5630097790906	-2.94368847844	0
5.875	0	0
6.609375	0	0
8.3805420158992	-0.72883907306127	0
8.078125	0	0
5.140625	0	0
7.34375	0	0
1.9753969304143	-6.5108597214121	0
0	-7	0
1.3689252361078	-6.6773065404534	0
1.271866542911	-7.3681658699021	0
0.79843667000352	-6.9610346280904	0
0	-5	0
8.0934491987285	-3.7402798363746	0
8.3526223075714	-4.3862968716516	0
8.8812932222946	-4.8495908353712	0
9.2495369766643	-4.2685648122416	0
7.5241925852712	-7.4735725008744	0
7	-8	0
9.0708714075818	-5.4858233310482	0
10.678386559089	-3.3272598792468	0
10.804571464251	-4.3307964217889	0
11.41891875058	-3.7351133902904	0
8	-8	0
10	-8	0
9	-8	0
9.2512683726635	-6.7158200190867	0
8.5	-8	0
9.6398646977454	-6.0569476299073	0
12	-8	0
11.701190691715	-7.0178795707848	0
11.202571672499	-7.4461441005432	0
8.9599697063497	-6.1597869948541	0
11.233165938823	-5.1597635949138	0
10.502612452147	-5.0816627650991	0
10.624270039711	-5.9297050009808	0
10.875476750227	-6.8176234265893	0
11.297502262295	-6.4093708180867	0
9.4009670005084	-3.4945762481523	0
8.704031409935	-3.6771790743333	0
9.8711091463184	-5.3516531775058	0
9.4076131337331	-4.9197440922233	0
8.6148589807278	-1.5468768747086	0
9.9767463500217	-4.640261707511	0
10.015519359214	-3.8912900484212	0
9.9562334753365	-3.2602198917368	0
11.542293243434	-5.8727156156799	0
11.533831101922	-2.9603017492445	0
12.154184826355	-5.3073953175186	0
12.205039694262	-6.0302968717877	0
12.565653848073	-5.7317611342705	0
12.283650708161	-3.5816924475913	0
10.110157211253	-2.637865210986	0
9.8587877567004	-2.0420494257341	0
10.28125	0	0
9.546875	0	0
9.9649662999966	-0.60627195995189	0
12.70465236974	-4.5100365304716	0
11.770287658143	-4.440650932946	0
11.617832441555	-2.0064323806666	0
10.859498247607	-2.4328581497823	0
8.8125	0	0
10.705622488639	-0.78896034843682	0
15.06553672398	-6.276028353677	0
15.680974072729	-5.7849759373399	0
14.632715739621	-5.6685994613595	0
12.365976924043	-6.6743633558583	0
11.813005918224	-6.4031309146134	0
14.38647420984	-4.8199859379677	0
14.194804380357	-4.0595150993604	0
13.597094220068	-4.6359830373028	0
12.293397764589	-2.6540853557846	0
13.34178425423	-3.6968226496998	0
10.821707318997	-1.6462338807521	0
10.342661210516	-2.0275986905901	0
14.010238366691	-2.1919402828937	0
13.55729974309	-2.7484698825173	0
14.240137580401	-2.6619477668096	0
12.917051988236	-2.4369691973858	0
12.879625457607	-3.0259697333822	0
15.191535490918	-4.924313627692	0
12.484375	0	0
12.086565658987	-0.57709382902849	0
12.758125436677	-1.01796672845	0
11.96236122703	-1.2284582090393	0
11.015625	0	0
11.318264939988	-1.2611066042886	0
11.475466841094	-0.64060339861446	0
12.852009680744	-6.1773420833061	0
13.072225890854	-5.405038899661	0
11.75	0	0
13.886294673494	-5.3329592763524	0
13.758879284747	-6.1456668635604	0
13.226726949397	-7.0485511502546	0
12.486647683567	-1.8707614222818	0
16.082690019272	-4.8838028544159	0
15.588249595521	-4.0858229696258	0
13.21875	0	0
13.352540526941	-0.46325628238061	0
12.45258115371	-7.3503371603357	0
13	-8	0
14.832628878105	-4.3011594131318	0
14.166838931635	-3.2806882428375	0
14.837679056872	-2.8631337404129	0
14.652463129072	-2.1856472856178	0
13.572273204992	-1.0938488821995	0
14.257450469287	-1.4834733391051	0
14.136499103215	-0.64728730968009	0
11	-8	0
14.906932583358	-6.8595391989725	0
14.50530276564	-6.3880454815302	0
14.180657895825	-6.9822987629868	0
14	-8	0
13.361788428331	-1.8441238959815	0
13.953125	0	0
14.860489128315	-3.6273128087287	0
15.023516208248	-0.78525331169581	0
14.6875	0	0
16.433738536114	-4.1591436718784	0
16.8292022244	-4.7493086727781	0
16.492671238228	-2.7570829143144	0
15.55378227869	-2.2395328783323	0
15.583809923027	-3.1816603901125	0
16.41147786877	-1.8589837305121	0
17.312602990133	-1.9876176433335	0
15.06680452402	-1.5886399739304	0
15.85107129564	-1.2339717480057	0
16.195600797192	-3.5412022318805	0
17.114058842164	-4.1917737383704	0
16.896094149161	-3.5575267671562	0
16.811448977771	-5.5938104794507	0
17.491952228104	-2.9614820164517	0
16.15625	0	0
15.750627365419	-0.51721425022099	0
16.30045814652	-0.5635762108592	0
15.421875	0	0
15	-8	0
16	-8	0
22.756862915706	-1.8570017610221	0
22.344534171134	-2.5456024048519	0
22.969878419642	-2.6472927337462	0
20.044005905968	-2.534398285706	0
19.517693861884	-1.7376224821256	0
19.295726866527	-2.3913520544351	0
16.40676546016	-6.4555129050585	0
17.018238820229	-7.033983679535	0
17.634670927242	-3.7791145708047	0
18.858048753151	-0.56694169011229	0
19.09375	0	0
18.359375	0	0
16.853086776378	-1.0597567726391	0
18.167541581048	-2.4176717555584	0
17.627135722909	-1.2162305966125	0
16.890625	0	0
18.803920155665	-2.6260600115479	0
18.805716510343	-2.0028710992174	0
17.596801646645	-0.52497032841282	0
18.243386992724	-0.86293430039319	0
18.167765680984	-1.6205595504649	0
18.884682322029	-1.2506979597346	0
19.738008291269	-0.72929214829284	0
17.625	0	0
17.30462052823	-4.6267683525864	0
20.055946740925	-4.2871034324514	0
19.251021539757	-4.0538766602334	0
19.724539057624	-4.9713633198339	0
14.698061916436	-7.4441215935864	0
17.612789726548	-7.4211394446211	0
16.96875	-8	0
17.9375	-8	0
[...]
CELL_DATA 1349
SCALARS Coverage double 1
LOOKUP_TABLE default
1.4296954343569 0.65214555291259 -0.054557226089439 0.28854960490538 -0.37955607342005 1.1150590913031 0.74733655914916 0.75719070596304 0.79178155022357 -0.095601898741555 0.079382868352674 -0.031324959246388 -1.051392431233 -0.233011355662 0.12769063773752 0.38469914340344 -0.15097009223872 0.05505619569343 -0.15134763105392 -0.12588890972019 -0.065826962386992 -0.014299149123257 -0.047178969252373 -0.079797216778984 -0.17263985582835 -0.14695249772106 -0.45916458879449 0.14404325351166 -0.081745252843676 0.10424543182525 -0.10076877263366 0.21582898481036 -0.10367297963714 0.023375775156542 -0.35117724761984 0.071423728041173 0.026781834077184 -0.11290970919239 0.17257980215327 0.016550253667874 0.17993025237358 -0.24824174609762 0.017139255600672 -0.82416952191546 -0.27438113903477 -0.16308331980157 0.14867334119797 0.11739139593245 0.21038834573958 0.08310230845645 0.44403761988074 0.35875011930275 -0.036045097746011 0.19419869960809 0.51498965176181 -0.45193831194843 -0.1685771768519 0.12781077058643 -0.18853709380016 -0.053524807217513 -0.11930574606405 0.30744964433217 -0.093677003083714 0.61696307510802 0.32247219812838 0.4169026854895 -0.10814798589968 -0.21113667171629 0.44892996299791 0.57819369111727 0.82377888531285 0.65670695521249 -0.11171342946789 -0.047526343351249 -0.23174815167524 0.11506553820964 0.48740917558151 -0.50238345100714 0.63068672179204 0.96265773091977 0.42010505748839 0.49262403590477 0.58836051696071 0.52945681868628 0.51392388385439 0.82860784507493 -0.79813401054241 -0.36142854021563 -0.15865980679219 0.71924705467333 0.22219313887009 -0.37493621601106 0.80572685414851 1.0041302978098 0.34843239554301 -0.44437185026526 -0.29896075774512 -0.88871282233023 -0.35149668662684 0.56717356932375 -0.66802654337817 -0.72364373254508 0.37787716673356 0.79264583276422 0.68644242478794 0.36332820396431 0.76437671394287 0.63656989489175 0.15590484727043 -0.61529775021097 -0.071240650707931 -0.060973150589827 -0.10526770211157 -0.13427906438185 -0.56158036233551 0.51522321065721 -0.68049410103537 0.60272833605001 -0.44812331427485 -1.1840813482138 -0.051894060156112 -0.76145249742719 -0.66470151005652 0.59797645006804 -0.024252563532763 -0.11688397974534 -0.69473067011399 0.69609464638698 -0.11319509992435 -0.41821320506127 -0.95877844589354 -0.27355451775336 -0.48479834611852 -0.24867257394364 -0.7071495289775 -0.59798338549767 0.70395835429429 0.59631643536215 0.53117152560582 -0.1190709660592 -0.73198242226497 -0.10177221901316 -0.084676985356321 0.86619230316543 0.64422823926855 0.49563950211225 0.68048504327264 0.17186849186019 0.64421298613847 0.9556631731526 0.41566798275423 1.4691328575654 1.3172277244552 0.84924975016919 0.56330860272272 0.77721740806317 1.0043165971664 0.72337667048435 0.88426744669693 1.0032313571495 0.52697533767262 0.98816527092075 1.167905673754 0.76234642991329 1.5070515283225 0.99476576959745 1.1423806662172 1.1721397894438 1.088835872466 0.92952934812318 1.0496279975843 0.65720033511129 1.2370561044535 -0.18483984763225 0.77096190370458 1.5491527975574 1.4075297333664 1.4206649031644 0.043918006166846 0.011472119150666 0.15142204074485 0.27742910090835 0.85604700023448 1.0193382059768 0.93611409316852 1.3519363225388 1.1314930714689 0.88624386149383 1.8037034105276 1.6129496402016 0.84451666363753 1.3396851643095 1.3946442908179 1.3922351903198 -0.44029093658029 -0.23106693886037 -0.78070816968954 -1.0050328702376 -0.58574836210028 -0.22145831148924 -0.097983937075346 -0.91540197542754 -0.52251485458785 -0.7468056923073 -0.84248536674204 -0.85887733471036 -0.27717283730154 -0.97439275562702 -0.37076752130795 -0.98353136755791 -0.12451748089075 -0.17025496921775 0.8134509669573 -0.75933233291402 0.29523705049553 0.70688284863376 -0.30986704167571 0.35110887912147 0.46655040713793 0.61698700224068 0.40494492738976 0.68953971555887 -0.86054213879983 0.74479467581519 0.41242332604339 0.54832865598817 0.15933693203504 0.10256440495704 -0.16875732832678 0.10327188353456 -0.28915488361597 0.04050424053334 -0.22817934836414 -0.081203417778606 -0.15049700813298 -0.050929876470319 0.066824871269463 0.0061085742062083 -0.23374406575769 -0.078798886790896 0.30978668285816 0.12280394828486 -0.25773778383276 0.06779315496038 0.044534994157929 -0.10269204297996 -0.18675688514347 -0.0024677923255933 -0.027895518189774 0.016389572792405 -0.057374418907182 -0.15212468472124 -0.33758698365367 -0.10299002622401 -0.28039705306651 -0.048215851604865 -0.33363907696676 -0.20955738847141 -0.3631817396422 -0.14192563890153 -0.34855675033353 -0.25428661493956 0.6260980660957 -0.36471513640183 -0.14260299854775 0.36635220091302 0.43681977134001 0.4214338350385 0.64282065599761 0.054760802562568 0.57043190546809 0.3634872468024 0.77150052635345 -0.03815090710506 0.35332687863003 -0.3080019867505 0.06572033034376 -0.2497803136991 -0.26053782092888 -0.14661837084523 0.36869157843327 -0.32525712218037 -0.29791290807114 0.23590704337591 0.60676106454345 -0.019039549940783 1.2977135395843 0.42105269362628 0.51897237332925 0.0089665465592302 0.39213807777424 -0.078445024610557 0.14024365319994 -0.18210215921789 -0.21442047403947 -0.2810807420612 -0.27314091138913 -0.25252492368592 0.5431616464055 -0.15495611247019 0.6303069638283 0.64712185223117 0.64390164965961 0.69485248821808 0.77899965978365 1.5073736511001 1.7367888831967 0.46611189823171 0.77073140237656 1.1944342209499 1.5226551339469 1.0646949195337 1.0718425883616 0.82990148602538 1.7772972211431 1.4953375483956 0.89412598165713 1.3170717267167 0.67864034393029 1.535403279354 -0.45013133476422 -0.53657043404847 -0.17284307136973 0.54196696333913 0.36074238789558 0.25692011239453 -0.38819968602854 -0.4086848575965 -0.53450279244542 -0.29322824773296 -0.16885619999038 -0.087000844062685 -0.1885668944443 0.30678539495537 0.3447541279478 0.017721598704496 0.58664900083223 0.73800729065849 0.65828560972089 0.101392036626 0.61041398303887 0.87576957513535 0.776101022567 0.55629491324942 0.90712372722868 0.93445995799981 0.18291936034788 0.90740530466754 0.81242898123668 1.5202906246587 0.78337804190957 1.2892583134918 1.7843047543995 0.72681114386039 1.1664859952695 0.91450099575966 0.75798956798581 0.84193516714097 0.80019256870014 0.71797886545749 0.84143508198813 0.79505367977183 1.0428689769274 1.3472364685086 1.5899261777 1.3369840422506 1.4796902733021 -0.2137034640537 1.4700762011223 -0.021036575126629 -0.18711462564568 0.60028822937528 -0.092656843404027 1.4667224995186 -0.16289902113752 0.27070531491274 0.16495034467609 0.32058505386507 0.0096170334054587 0.32643733516352 -0.14373630741912 1.0823341788767 0.41673207927305 -0.010003329093036 1.603396658762 0.060806197117642 -0.022388503657644 0.97954630288822 0.49734379250656 0.16599235383841 0.87171142707486 0.85941795035316 1.0989392656564 -0.044880168432611 -0.30858566040228 -0.22585135786326 -0.16030383332089 -0.003443415580791 -0.1273276083897 -0.24094741375334 -0.22002041450494 -0.27409444145222 -0.20286629308447 -0.048759629203927 -0.088870330615808 -0.0032811051740779 -0.074294279155843 0.042386299522387 -0.00013773309729548 -0.032662847996268 1.7668074377737 1.1694595786105 0.93287972453881 1.2310433639236 1.3635158113071 1.4535603241311 0.98041638157855 0.99013112063848 1.6208676904712 0.96795499306289 0.94180846607982 0.85811838302043 0.95455137671474 0.83879719336238 0.8359719075351 0.85192057972273 2.0409973952853 0.83144344254783 1.6177191746869 0.69342935298989 0.8055788226418 0.27834015723825 0.50255222194054 0.0066610930448109 0.16695094562669 0.35786283886282 0.71317670758014 0.80702906060302 0.78752745568186 -0.22931567536694 -0.11177489522699 -0.25258174525686 -0.16758484810429 1.2363957132972 0.89684472848977 0.82298574139038 0.82577142447909 0.73008527770838 1.0778923320249 0.89908737561274 0.88192610046294 0.89878157343875 1.1387175056268 0.59832277267741 0.72419497240458 0.7454766213519 0.64077342316291 0.45066152004403 0.79060893135967 0.5645151952114 0.60833916269261 0.51173616867018 0.56537199717297 0.066402237330414 1.6645570568851 0.57340414523885 0.79789205009456 0.89595701607946 0.93208117336567 1.6061348097652 1.0137348647568 1.814133031389 1.6981992616525 0.53468653168509 0.93267232992438 1.3469146765239 -0.18065532140908 1.0287567337669 0.35719818551581 0.79894916480221 0.81943720793046 0.52775688664253 0.3502029600376 1.9039523837847 0.2368954909481 1.3544638402971 0.97712115760358 0.53981634287981 0.52433292977431 0.043575234309023 1.8557397530333 0.68875986795047 0.95939369154755 0.72613351603216 1.0276440789212 1.0133087231844 1.9041023935882 0.77107272601996 1.3144027143502 1.252555085754 1.5352099940195 1.6388392792173 1.3827181601139 0.9676824951666 1.5961738817012 1.0769667220789 0.95130335836883 1.586164166419 1.8531869771527 1.2454392005761 0.39368870806575 1.5922938155393 0.67609453660626 -0.081595010266545 -0.017918266698894 -0.070729189608455 -0.053851536423003 0.15810550020887 0.86536605397659 0.13682962539691 0.18949470885589 0.68392350272627 0.163469846982 0.34838232402399 0.93454606871201 0.40325088330948 0.24664955715095 -0.30861744240708 0.68871355392007 -0.11658651032703 0.63645116061658 -0.36695572958569 0.63284735704763 0.092415906751139 -0.19802763774497 -0.22601110139663 0.084055678658854 0.53794016024642 0.21975184864044 0.47713404709287 0.11702226204592 0.94569572902784 -0.31895220167471 0.42003539198082 0.69554477874485 0.8826816038934 0.072699971102143 1.6775391166164 0.60422462339313 0.063649450710863 0.68921391489944 1.024821008475 -0.20616469139314 0.97554360767765 0.66157145445779 1.0640372443142 0.45880462799533 0.23921169359683 0.52528523267586 0.034609495555821 -0.024223945456555 -0.047404941460134 0.49119837634385 0.46572731478053 0.40057215845881 0.25847780723082 -0.15660124183284 0.9320084254335 0.60790526660125 0.022814770027826 -0.0783848273967 0.16592149962725 0.99572196808122 0.17979250381303 0.28626325232366 -0.074625880455661 0.71168148491761 0.72636228828235 0.29560770058472 0.2887852443564 -0.16749346332816 0.49779706148928 0.73277608885291 0.81370471216097 0.66212437671318 0.75585039047457 0.81745754768801 0.054838904001294 1.1163605781804 0.7799056429555 0.67907226946132 0.85587660471612 0.78154049172324 0.53685611277001 0.75535375313877 0.3954878385806 0.37757885729763 0.55631510726417 0.54565175398912 0.035955258287524 0.38334412994996 -0.26742571688762 0.26123412903778 -0.14623898387139 -0.023854363351641 0.20713329960487 -0.080662252286696 0.39315692336076 0.52023030077994 0.16568329193163 0.0046484464144366 0.18095684573238 0.26383670023097 -0.04353906373916 0.57003940322094 1.2142022843794 1.5806014490005 1.2219599041992 1.0606173227707 1.0261820362101 0.88345611786585 1.9030957411425 0.86816412388718 0.77866441470499 0.78393159071141 0.94275842906219 0.8425632891032 1.7446441749662 0.58525387103951 0.11455403115458 0.72417008468071 0.084347638950616 -0.26635846180799 0.0089716373354926 -0.27269552373636 -0.13239954605913 -0.16472825873566 0.30401823162185 0.12199750583721 -0.075978774317429 -0.285701323206 -0.29758225194171 0.39100935814982 0.1393775318853 0.03215705933413 -0.028157046549962 -0.034680615558691 -0.25736173285993 -0.24251732543972 0.73597676108669 0.49793216665447 0.57739546762754 0.63257209275004 0.76742391497437 -0.3059795141815 0.80696687537664 0.77691906897778 0.51274193291433 0.85002309360651 0.85077585448484 0.33622436579896 0.084613134134876 0.80738792420379 0.84022648890192 -0.0095917108144279 -0.037775380812872 0.76559375091797 0.78143707732954 0.031045523674645 0.31087542040741 -0.22242260081769 0.30555912147644 0.63122250265445 1.6246519226439 0.77891798956309 0.85579483734787 -0.0028311010995709 0.71339322669666 0.82601273677095 0.025682121424477 1.6877521302048 0.93575829915205 0.91835869654005 0.99497600877468 1.3626121235731 1.8396243643055 1.0266643782054 1.6013248707513 1.0324290467628 1.1181309685223 0.048348725310211 1.5837565451387 1.1331052313919 1.4834295811656 0.60538889005679 0.29602850402822 -0.23583625631013 0.31163623167878 -0.29654731799644 0.32444254275669 0.33490602539061 -0.24997479834013 0.58262701454528 0.84144238514315 0.71252247169473 0.46685763877619 -0.0014411456038337 0.78956280352587 0.7180396619569 -0.27391885944992 -0.11392571972209 -0.03148216316323 0.2859579900823 1.347923361578 0.20245683783497 -0.26803253583849 0.27002233705568 -0.3361199722111 0.036477353184682 0.019702333709686 -0.13838121530751 -0.11365858912075 -0.26874535357469 -0.47474847170069 0.10514269128703 -0.2597046446344 0.74785186464344 -0.037884154877232 0.17262134021821 0.3484901552299 -0.28620043184661 -0.2168383684446 0.67327228136571 0.56962125520744 -0.30581850754019 -0.29159966209611 0.41803868802931 0.40201038566648 -0.25652090852433 -0.28678233060259 -0.09148885394339 0.15778574250187 0.16708886136422 -0.066378604669716 0.61776808665819 0.85406623798655 -0.27287320496859 -0.21461899751614 0.96490138629408 0.66574954978159 -0.16130126426315 0.19883673114099 0.69226494963423 0.68036928747964 0.58946892599548 -0.16067287213506 0.72945783481625 0.74540336880182 0.73872426948503 0.48148167261172 0.15302809088129 0.91328894350601 1.086613211501 0.66320028521541 1.6263407776398 0.88518481805654 0.77202090938349 0.70055954456003 0.59560036499107 0.70794516039845 0.87420427217958 0.0034324238000858 0.012531022073604 0.88507872860569 0.33684986461156 0.52276876495834 0.77294446806029 0.71898514823705 1.7412986050801 1.0230832961866 0.76297404018749 0.89262691898361 1.1339410622986 1.8443708982962 1.0117655643096 0.91836038403102 1.4658833445574 1.698225796539 0.79348731421579 0.78958265514152 0.82976849187719 0.78504737427857 0.90064710248867 0.83171528399049 1.0964170142299 1.6339215145462 1.0755904410275 1.5340163775328 1.4445751494951 0.86414664331191 0.98166285860206 1.2606936983709 0.67204571208233 1.5221565514466 0.90881249782522 1.9097224373008 0.071600429360808 -0.15506216860082 0.16565691713159 -0.10547601058373 0.45499196223939 0.49623378037411 0.21429662839484 0.25465312822184 0.13685525662213 0.39235927909823 0.24430086251725 -0.47863264550905 -0.53655865745896 -0.10416741432903 0.32305091898915 0.053003215229749 0.32861753613545 0.39704874679963 0.022508879303417 -0.031588851801725 -0.0061830548178182 -0.3583006326621 0.14756992073298 0.11252895871336 0.12871236375631 -0.011374498915954 0.40842637412095 0.53969224682765 0.40350464021056 -0.33408736175248 0.48210613824517 0.42940681422668 -0.19529361768596 0.059330248957923 -0.2343495191966 -0.21528937195119 -0.2168421559107 0.062033959916189 0.006075869675066 0.7055354485627 0.32873913074683 0.69142192848913 0.24072935186533 0.029451724113075 -0.16781844490461 0.99987842316239 0.32248259699673 0.64681405488542 0.39048919682537 0.71554515390965 0.038829782384949 1.4992561613745 -0.41146021784802 -0.36442666425447 0.49771861381035 0.58936031256137 0.74067125624075 0.6561454593356 0.70431466994009 0.38451895979037 0.66557097496442 0.6610884010485 0.67656654046891 1.1008930053127 0.7035092702857 0.11826190644272 0.69744736930146 0.87448893491685 0.84458986783659 0.37574852731626 0.62991138371631 0.97562775110106 0.99940429832045 -0.29198126083713 0.82067296810851 0.84006465806264 1.2878435281795 -0.44884469859623 0.86442888520732 1.2457025942816 0.77055921576984 0.87410062477526 1.092978288651 0.82531997804765 0.83436750113442 0.69584794567487 0.34020500236992 -0.17035727630501 0.69107627098481 0.055311183829559 -0.30328273837922 -0.44058959309392 0.88593080643516 0.97764808024217 0.87315383786542 0.79473491974171 0.91635000735082 0.96497401694555 0.87668800594592 0.46862146975374 0.36769279090315 0.90942170440191 1.0000203221867 0.92866814911303 0.751504309472 0.47615616354568 -0.40284617198586 -0.33363651839147 0.18056008985161 0.28241155167364 0.6397307832253 0.27050464179547 0.40098249830546 1.5839306306645 1.9819907767648 1.9478405620291 1.3400440324622 1.1702468514509 1.1788800972215 0.92068881478073 1.041997840073 1.6343549249934 1.1391897669247 1.0436785448147 0.97262252206636 0.96841084091656 0.98946444484376 0.94042482087776 0.92536819188615 0.89207503219795 0.98884771837045 0.89578238416391 0.92383347599868 1.5348376979965 0.98819803700641 0.8737100103672 0.81308492278958 0.78130504207627 0.76681737780742 1.1557316469879 1.0256215763672 1.852159034462 1.4085698773876 1.8274103414153 0.98487352883295 1.313138932681 1.8295647881917 1.5783697403446 1.2492111334914 1.1004596803289 0.7962834161856 1.4461157814987 1.4106422107383 1.0726053372928 1.6046205678219 1.2497254734728 1.7218439953364 1.6092181752116 1.5782969037467 1.3242091744428 0.78829378419577 0.99055525768319 0.75129407271294 1.7055373877588 0.59356950810468 0.80672791555215 1.246851268366 1.0166598960683 1.4954364605047 1.4577231086491 1.1434998849778 1.4927484589193 1.0614174565775 0.89445854209807 1.8077739386419 0.71728419044706 0.84530068048107 1.1132462580224 1.1245396618794 1.2515486877582 0.84218577038022 1.616564402485 1.4537464432167 1.8275583314837 1.2544945317754 0.7028422631198 1.0699618969642 1.4539961546694 1.5267132443278 1.2377404126383 1.4752543136172 1.7919027577689 0.97358274524527 0.84467279924464 0.82215840162322 0.78451495724102 1.827902320009 0.77712039079182 0.7349823207987 0.84898882666626 0.93447148859784 0.79823221421974 1.4589085763646 0.76116351771054 0.81769647813039 1.074465673869 0.70071943239372 0.64715249382123 1.0966989455137 0.99251470759842 0.7786535824387 1.6316274749492 0.80077283457518 0.84794864855983 0.64286536422434 0.58141724440337 0.77313444527449 1.3822512865878 0.57632994304483 0.77113340248112 0.18906765640564 0.30207730837467 0.97667566454986 0.80634758640861 1.4847439919228 0.62404507724022 0.76281774400759 0.32141664427359 0.43041006076217 0.38413177431394 0.093807687329917 0.80770750586063 0.80719801634845 0.70172148436509 0.84465322718006 -0.093275266949707 0.22392934770419 0.58774953283304 1.2993939427062 1.0543362017412 1.6639706337096 0.71355196016245 0.80102927661685 0.73429954918635 1.2826712601752 1.0275506892338 1.0565211572033 0.94957213332551 0.53615824397822 0.60775919552099 0.93637847211378 1.4948579686636 0.55446315572915 0.91895733396 0.95813619483795 1.2689542524359 0.63726920085491 0.68714724023205 0.89284319601365 0.52015950596125 0.5671490193696 0.15386294768432 0.51675879833609 -0.15486104012804 0.30659675417094 0.19968934176583 -0.12567744445458 0.17720573387937 0.098239002466378 0.1430260588939 0.4976894064155 -0.27420790812895 -0.11097896439453 -0.083743056619983 0.49412445926439 0.1205135694678 0.23475859869415 0.059265007835877 0.42811536402968 0.72423183459093 -0.058129448425653 -0.052636945098406 0.13552171261366 0.45466042791336 0.0011162043411721 0.3213451474138 0.44741034498462 0.60909925489697 0.55231425675107 0.7155854648358 0.49347952397645 0.55275978968628 0.50074578104138 0.66693185448866 0.57977102757878 0.60880898008473 0.57640407366294 0.57911265109424 0.44268033351724 0.18933656917567 0.53269302665754 0.57091758716459 0.46352538961055 0.54718303156343 0.42496948618709 0.15527793960353 0.085970925953679 0.092758456463847 0.58406913040295 0.5947964616796 0.016959725461303 0.068246686045779 0.82752484899266 0.82798823089936 0.51795181167455 0.44054595225774 0.69493268577567 0.78916420986373 0.45401359325943 0.47682793304378 0.83800285929927 0.59861955791321 0.87078826923132 0.62577964078046 0.84399417714281 0.76047858423034 0.54065890894308 0.55547892380638 0.56559761619754 0.56550760710234 0.66749836925067 0.63476624976533 0.62023950867491 0.56330414461116 0.45802646895431 0.51113076130985 0.036767264476932 0.27717110287539 0.52415522205125 0.50269704479265 0.46133755838913 0.4012264826953 -0.064279441973399 0.54530665039147 -0.20248398571717 -0.24059288877003 -0.098672241740814 0.49189785210007 0.13895244953749 0.23251653582502 -0.068369887069648 0.0051667196819369 0.49262035733566 0.0012293927320949 0.38841443610385 -0.36906985298117 -0.35871836158889 0.25576206958511 0.1209977245607 0.4279166