# vtk DataFile Version 3.0
d-2__ created by libgimli-v1.4.0-22-g2d6c0250
ASCII
DATASET UNSTRUCTURED_GRID
POINTS 739 double
35.25	0	0
34.766081542978	-0.82021566092004	0
35.632578047987	-0.72883630452407	0
24.024974223709	-3.3959938323052	0
23.653360812241	-2.7288670633191	0
23.229010511392	-3.3529576731171	0
4.0418655321018	-4.0506862785614	0
3.4460515782386	-4.7439961566826	0
4.2311515920029	-5.0809003825016	0
15.407766344465	-7.3730645449994	0
16.233299169082	-7.2585920105004	0
15.614499752591	-6.6705036155538	0
0.87966150056611	-3.868344094725	0
0.53946997502051	-4.5402672655454	0
1.0423668045247	-4.5416868935558	0
10.044780655634	-1.38528895599	0
9.2449702923403	-0.85837555044783	0
9.345362148561	-1.7444613449413	0
9.4404614270197	-2.4142126442597	0
8.8670364751027	-2.2005241160204	0
8.8981197610435	-2.9065452242835	0
40.643431096227	-1.8007378109998	0
40.90951054121	-2.5500139899776	0
41.411624169268	-1.5999858451814	0
30.395367991702	-1.9693062955434	0
29.554682165597	-1.8859186953224	0
29.759185494429	-2.7694853144209	0
5.1523452594718	-5.0731882456395	0
4.7333838933121	-4.4274311535604	0
4.8293365853565	-6.5416884368369	0
4.6531391287001	-7.357849878802	0
5.3618836946219	-7.2453518540761	0
2.420340802333	-5.9803755969777	0
2.2095578170366	-5.1629239562001	0
1.5749245865607	-5.8280971878667	0
6.4631285840114	-5.7234774575293	0
7.0614370368234	-5.3339000067243	0
6.4310774709665	-5.0305550495624	0
6	-8	0
6.8149088859959	-7.1369339193422	0
6.0380890087879	-7.0593430649453	0
2.337095399571	-2.7024130282098	0
2.4182611852565	-1.7461085668484	0
1.7314028473745	-2.3660256592611	0
4.7120578677277	-5.728342736769	0
4.0027109767498	-6.0857371454819	0
5.6471126438986	-6.5176179037	0
5.8650720782736	-5.3997839601918	0
5.3575291744975	-5.8713437985688	0
8.8206498418204	-7.3549687861435	0
8.4413342175328	-6.6552453659709	0
8.1531633313928	-7.3876617519353	0
5.9380884743294	-5.9807090902451	0
6.340105930545	-6.4315959866684	0
4.0658421990741	-7.0053381340916	0
5.3593802187152	-4.2767652155575	0
5.858312820725	-4.714231643898	0
3.5539747292485	-5.4650356113086	0
3.1722088864894	-6.0889775775066	0
4	-8	0
5	-8	0
4.9041715027695	-3.6404381370114	0
6.3841275467394	-4.4206981320864	0
6.7082817957996	-3.6916407749453	0
5.9717371155479	-4.0622525356292	0
10.455786908479	-7.3899923003538	0
10.069732056581	-6.7108805202894	0
9.5950164365213	-7.3631486063629	0
2.7298127856572	-4.5788385214117	0
2.0726289944547	-4.3946730213117	0
7.1327228036634	-6.1871299893166	0
5.9922272054042	-3.4924814834306	0
4.2186757807963	-3.1085730056651	0
5.5515996961085	-3.721657217286	0
5.5244600938001	-3.1299237043516	0
2.921729566446	-5.3311984568052	0
6.9648131056334	-4.5768127754969	0
7.6649814503624	-4.8682074785256	0
7.7420202437717	-5.6148710814956	0
5.5676567450914	-2.3292148446412	0
4.9222559921608	-2.7486617302843	0
6.1971181697204	-2.8540900672423	0
7.0212731257583	-2.6573891139302	0
4.0890680178231	-0.80500860446348	0
3.2172049700142	-0.97874737870402	0
3.8193790308275	-1.6629755476804	0
8.3416777787407	-5.1833881033199	0
7.5572275114128	-4.102709076165	0
3.5794694184609	-3.3774522548669	0
7.6088637440976	-3.3061553813084	0
8.0396305197243	-2.3832345250595	0
7.2501992898856	-1.8315241352993	0
7.8258608922489	-1.346118462439	0
7.0328259049448	-0.91494393004697	0
6.369261658854	-1.8257400853179	0
4.9672453990647	-2.0402364640941	0
5.4220884530876	-1.389640384905	0
4.5794425818972	-1.4753994016058	0
0	-6	0
0.75115345976489	-6.2921750472139	0
0.77632627405085	-5.2976449958587	0
2.3034188316378	-3.3286511292171	0
1.9431807852442	-3.7381185229599	0
2.5260903249391	-3.8678537932067	0
7.8699182234219	-6.2360358230764	0
7.6542578277896	-6.8451202459774	0
8.2655479110563	-3.2088163092203	0
3.2040934351226	-3.9685105959404	0
0.734375	0	0
0	-1	0
0.61443623639171	-1.1818049446663	0
0	-2	0
0.52853507360799	-2.6508136276114	0
1.0036880328999	-1.9729809919743	0
1.8146822935359	-3.1226852479236	0
1.4514208372378	-3.5701769998337	0
1.5278007240401	-4.8942112229174	0
0	-4	0
3.5512838533278	-2.5599597745499	0
1.4868063674291	-4.1631811125537	0
2.9034746231188	-3.1852042312138	0
2.8721321228156	-2.4183325865144	0
4.3412571586717	-2.2647172445937	0
2	-8	0
2.6659100987264	-6.9662786892768	0
1.8544139966028	-7.1043716111303	0
0.5079131956491	-3.2995937075409	0
1.1307352897668	-2.9800868127229	0
3.4693050880931	-6.6981202008635	0
1.6868535240114	-1.6376438628027	0
3.440232320933	-7.3347847410184	0
3	-8	0
1	-8	0
0.61268418967956	-7.4660603407378	0
0	-8	0
0	-3	0
4.8535502314262	-0.7073385918545	0
3.1733778454903	-1.8751252197409	0
2.9375	0	0
3.671875	0	0
4.40625	0	0
2.4330107061784	-0.73760748326961	0
1.3333015130559	-0.9315959698365	0
1.8766050689234	-0.56293537948883	0
1.948537503014	-1.1293433308992	0
0	0	0
2.203125	0	0
1.46875	0	0
6.1316050836961	-0.78450548287625	0
5.484535700698	-0.57615159438342	0
7.7277917280599	-0.60111054434286	0
8.400860817486	-5.8876225358776	0
9.5630097790906	-2.94368847844	0
5.875	0	0
6.609375	0	0
8.3805420158992	-0.72883907306127	0
8.078125	0	0
5.140625	0	0
7.34375	0	0
1.9753969304143	-6.5108597214121	0
0	-7	0
1.3689252361078	-6.6773065404534	0
1.271866542911	-7.3681658699021	0
0.79843667000352	-6.9610346280904	0
0	-5	0
8.0934491987285	-3.7402798363746	0
8.3526223075714	-4.3862968716516	0
8.8812932222946	-4.8495908353712	0
9.2495369766643	-4.2685648122416	0
7.5241925852712	-7.4735725008744	0
7	-8	0
9.0708714075818	-5.4858233310482	0
10.678386559089	-3.3272598792468	0
10.804571464251	-4.3307964217889	0
11.41891875058	-3.7351133902904	0
8	-8	0
10	-8	0
9	-8	0
9.2512683726635	-6.7158200190867	0
8.5	-8	0
9.6398646977454	-6.0569476299073	0
12	-8	0
11.701190691715	-7.0178795707848	0
11.202571672499	-7.4461441005432	0
8.9599697063497	-6.1597869948541	0
11.233165938823	-5.1597635949138	0
10.502612452147	-5.0816627650991	0
10.624270039711	-5.9297050009808	0
10.875476750227	-6.8176234265893	0
11.297502262295	-6.4093708180867	0
9.4009670005084	-3.4945762481523	0
8.704031409935	-3.6771790743333	0
9.8711091463184	-5.3516531775058	0
9.4076131337331	-4.9197440922233	0
8.6148589807278	-1.5468768747086	0
9.9767463500217	-4.640261707511	0
10.015519359214	-3.8912900484212	0
9.9562334753365	-3.2602198917368	0
11.542293243434	-5.8727156156799	0
11.533831101922	-2.9603017492445	0
12.154184826355	-5.3073953175186	0
12.205039694262	-6.0302968717877	0
12.565653848073	-5.7317611342705	0
12.283650708161	-3.5816924475913	0
10.110157211253	-2.637865210986	0
9.8587877567004	-2.0420494257341	0
10.28125	0	0
9.546875	0	0
9.9649662999966	-0.60627195995189	0
12.70465236974	-4.5100365304716	0
11.770287658143	-4.440650932946	0
11.617832441555	-2.0064323806666	0
10.859498247607	-2.4328581497823	0
8.8125	0	0
10.705622488639	-0.78896034843682	0
15.06553672398	-6.276028353677	0
15.680974072729	-5.7849759373399	0
14.632715739621	-5.6685994613595	0
12.365976924043	-6.6743633558583	0
11.813005918224	-6.4031309146134	0
14.38647420984	-4.8199859379677	0
14.194804380357	-4.0595150993604	0
13.597094220068	-4.6359830373028	0
12.293397764589	-2.6540853557846	0
13.34178425423	-3.6968226496998	0
10.821707318997	-1.6462338807521	0
10.342661210516	-2.0275986905901	0
14.010238366691	-2.1919402828937	0
13.55729974309	-2.7484698825173	0
14.240137580401	-2.6619477668096	0
12.917051988236	-2.4369691973858	0
12.879625457607	-3.0259697333822	0
15.191535490918	-4.924313627692	0
12.484375	0	0
12.086565658987	-0.57709382902849	0
12.758125436677	-1.01796672845	0
11.96236122703	-1.2284582090393	0
11.015625	0	0
11.318264939988	-1.2611066042886	0
11.475466841094	-0.64060339861446	0
12.852009680744	-6.1773420833061	0
13.072225890854	-5.405038899661	0
11.75	0	0
13.886294673494	-5.3329592763524	0
13.758879284747	-6.1456668635604	0
13.226726949397	-7.0485511502546	0
12.486647683567	-1.8707614222818	0
16.082690019272	-4.8838028544159	0
15.588249595521	-4.0858229696258	0
13.21875	0	0
13.352540526941	-0.46325628238061	0
12.45258115371	-7.3503371603357	0
13	-8	0
14.832628878105	-4.3011594131318	0
14.166838931635	-3.2806882428375	0
14.837679056872	-2.8631337404129	0
14.652463129072	-2.1856472856178	0
13.572273204992	-1.0938488821995	0
14.257450469287	-1.4834733391051	0
14.136499103215	-0.64728730968009	0
11	-8	0
14.906932583358	-6.8595391989725	0
14.50530276564	-6.3880454815302	0
14.180657895825	-6.9822987629868	0
14	-8	0
13.361788428331	-1.8441238959815	0
13.953125	0	0
14.860489128315	-3.6273128087287	0
15.023516208248	-0.78525331169581	0
14.6875	0	0
16.433738536114	-4.1591436718784	0
16.8292022244	-4.7493086727781	0
16.492671238228	-2.7570829143144	0
15.55378227869	-2.2395328783323	0
15.583809923027	-3.1816603901125	0
16.41147786877	-1.8589837305121	0
17.312602990133	-1.9876176433335	0
15.06680452402	-1.5886399739304	0
15.85107129564	-1.2339717480057	0
16.195600797192	-3.5412022318805	0
17.114058842164	-4.1917737383704	0
16.896094149161	-3.5575267671562	0
16.811448977771	-5.5938104794507	0
17.491952228104	-2.9614820164517	0
16.15625	0	0
15.750627365419	-0.51721425022099	0
16.30045814652	-0.5635762108592	0
15.421875	0	0
15	-8	0
16	-8	0
22.756862915706	-1.8570017610221	0
22.344534171134	-2.5456024048519	0
22.969878419642	-2.6472927337462	0
20.044005905968	-2.534398285706	0
19.517693861884	-1.7376224821256	0
19.295726866527	-2.3913520544351	0
16.40676546016	-6.4555129050585	0
17.018238820229	-7.033983679535	0
17.634670927242	-3.7791145708047	0
18.858048753151	-0.56694169011229	0
19.09375	0	0
18.359375	0	0
16.853086776378	-1.0597567726391	0
18.167541581048	-2.4176717555584	0
17.627135722909	-1.2162305966125	0
16.890625	0	0
18.803920155665	-2.6260600115479	0
18.805716510343	-2.0028710992174	0
17.596801646645	-0.52497032841282	0
18.243386992724	-0.86293430039319	0
18.167765680984	-1.6205595504649	0
18.884682322029	-1.2506979597346	0
19.738008291269	-0.72929214829284	0
17.625	0	0
17.30462052823	-4.6267683525864	0
20.055946740925	-4.2871034324514	0
19.251021539757	-4.0538766602334	0
19.724539057624	-4.9713633198339	0
14.698061916436	-7.4441215935864	0
17.612789726548	-7.4211394446211	0
16.96875	-8	0
17.9375	-8	0
[...]
CELL_DATA 1349
SCALARS Coverage double 1
LOOKUP_TABLE default
1.4028382753136 0.49821457777122 -0.55726395966197 0.004568161143477 -0.52117828894113 1.0878370988276 0.88573105041365 0.71267913467373 0.82058113146393 -0.63610475218104 0.25774150239814 -0.5988383701468 -1.5157445892144 -0.68156891059757 0.25553169049926 0.62306774928165 -0.33553604822522 0.18893245640602 -0.60244692581825 0.044974677138931 -0.20691856327058 0.008210163422749 -0.041452918047271 -0.50975154178384 -0.53466937523172 -0.42219998979002 -0.8697052126707 0.40888877237448 -0.25246305447865 0.34691651135541 -0.56720351836975 -0.13332731116749 -0.15255299797078 -0.28474196719064 -0.9289578628018 0.20759865751772 0.087679986013043 -0.48100505440668 -0.02617628798059 0.15076881268369 0.44851023202465 -0.17449709597363 -0.18967071160773 -1.2037870812492 -0.65544970878092 -0.48105624093289 0.40625579439667 0.30534333528076 0.19691360683265 -0.4176789958244 0.053961666235086 -0.04800784458023 -0.45442688884878 -0.023614816310462 0.23158850849024 -1.0092739969028 -0.6498801526951 -0.23058114822397 -0.59435495439029 -0.28280902955732 -0.2596174125847 -0.037692943331999 -0.30963187550813 0.29007125787613 0.12952707261423 0.26537263672255 -0.3162316130736 -0.5324864189788 0.50302917800116 0.25863533072377 0.90508736807484 0.25504979872988 -0.2309145726169 -0.12696990537134 -0.21707006785806 0.10685266040395 0.19547951517317 -1.0181322536552 0.66619846718226 0.92338158423055 0.39899819747103 0.35083217783862 0.48881565197129 0.36063425057974 0.51469010454224 0.77280402029223 -1.1203775611311 -0.29864824369791 -0.34297990171216 0.7996364402743 -0.060061009692775 -0.63227808621474 0.7919526692059 0.88365932989075 0.22954036754899 -0.37420443243825 -0.66577048838283 -1.1621075765729 -0.45976800319947 0.3301398368731 -0.74581680944753 -1.2374103287589 0.4809207765096 0.77981034344492 0.40247179721445 0.59153749212001 0.74805847797197 0.33805927635422 0.0074785821636021 -0.75528883758986 0.093472744254677 -0.14252165203057 -0.53762842942437 -0.051789773206223 -0.74439256220649 0.38850658264425 -0.89389539754734 0.46698287460728 -0.30307387845873 -1.6231206463334 0.15369056319721 -1.0042494186532 -0.74784868107175 0.59902729814039 -0.1037242975471 0.1511517673435 -0.77733287632 0.64500269842941 -0.20623886322375 -0.55121762749087 -1.2015671104638 -0.43945275867397 -0.37662873815141 -0.44780364077024 -0.92046998865088 -0.79460127124471 0.33692497160406 0.49187832655702 0.67165871234916 0.04499555079936 -1.1845811943997 0.086316073976739 -0.036461513897265 0.83012740794376 0.64911560923833 0.63309528428091 0.34343217364749 0.098391513672688 0.59576271566128 0.9336312984294 0.49811379918528 1.4308390114889 1.2857839526788 0.84561795049673 0.70378059872317 0.71639537054219 0.96502970202848 0.76838989510081 0.83964441455975 1.1040670027824 0.66257578367837 0.95053970636006 1.1287893279652 0.78387939171003 1.4632553017907 0.95327744530303 1.142052895121 1.1300033352094 1.065779625877 0.9390746402349 1.0296100662054 0.64847613673099 1.1833491015298 -0.19732962554507 0.98242469488142 1.5050716340756 1.3868227229703 1.3517904588403 -0.07458744841638 -0.069859150352805 0.15408368430414 0.19348669415208 0.81261638610271 0.99211808559942 0.76938891253662 1.3235177767183 1.0705838042247 0.88372878571613 1.7096804599747 1.5389642677687 0.86400788038334 1.2674502622327 1.3741485337237 1.4159173857094 -0.9069769955103 -0.68560472215571 -1.2925454573943 -1.4628106883255 -0.80108210809988 -0.32028516354303 -0.085777462724057 -1.3358556764636 -0.83760041559414 -1.0514314420768 -1.0863754081268 -1.2015200977536 -0.36122297136714 -1.3140552104743 -0.5310784971927 -1.3530257462572 -0.22703887797451 -0.30514779529556 0.76570988964224 -1.0072094235727 0.23739344278973 0.78622604560833 -0.47688469805223 0.51908604635676 0.48585348221988 0.70227658712308 0.57729467144188 0.57289015680707 -1.1373266116186 0.62791265855084 0.43451145047445 0.62539736495701 0.13999549645355 0.35163966375251 -0.27435425713652 0.20389492733967 -0.68313793066719 0.13893852230606 -0.40119788256601 -0.048916365404291 -0.26305681761113 0.0093824914744932 0.11467148320353 0.038854669732491 -0.33291975582006 0.16072210735283 0.70451492272033 0.30066177579388 -0.33672789974652 0.15669398582996 0.14461520368584 0.19439372426916 0.032379127698715 0.19322705285761 0.24328468477264 0.17205324088391 0.21465730038724 -0.031269668353379 -0.35029800925934 0.012747550620986 -0.22973961612888 0.22999078059088 -0.37781036397669 -0.12518070268663 -0.28850945690207 0.039996782682349 -0.47466525635426 -0.25106308518476 0.83244262018686 -0.32355171447885 0.089532340690709 0.50466340295852 0.72297929826364 0.5727218365836 0.75544794274089 0.19912110329267 0.73011708053121 0.63917611989663 0.85458562435641 0.19721814041464 0.49509753676056 -0.21160508038971 0.41195426341567 -0.21109792881938 -0.12264154005994 0.11816379466582 0.69212322622823 -0.39366222052572 -0.32644992807646 0.67575997528516 0.90095615345781 0.45043237465437 1.2783329360097 0.86416463323328 0.92035079079887 0.32159016296281 0.84898202338706 0.30207174803688 0.49365490380063 0.11482984362531 0.085735022706839 -0.051763660897773 -0.11350021944857 -0.061642504278462 0.83167362113749 0.16110375383848 0.64789128019341 0.9714517938286 0.87785556292641 0.98683855555201 1.0019941254071 1.5960239203447 1.7648581252687 0.4601538118433 0.8601296012237 1.1458787349735 1.4972273794424 1.0373804563324 1.0446872585514 0.80852777154122 1.8429845355139 1.5018844451802 0.97722981310292 1.2471431322453 0.9249689107955 1.4685867336871 -0.68092263251262 -0.68370307363243 -0.20609610371079 0.50977071808685 0.29061750669297 0.23333827990329 -0.51112286047968 -0.53793958400245 -0.7046280976899 -0.29867378325105 -0.051578157734884 0.15964720298925 0.13175211660689 0.5896096700563 0.56085686105642 0.289615847225 0.51472800852308 0.5660484321283 1.0070269829426 0.31765070979331 0.48635675184447 0.77095987812289 0.95567352868277 0.33194453930428 0.73904960614007 0.75034445811238 0.43210587646663 0.73483823207518 0.93500186590773 1.53846960665 0.91092938622589 1.3067727634447 1.8534827845887 0.97941441412193 1.1509070274893 1.0055629956962 0.93997317548862 0.9643405294049 0.94112925399063 0.93905287188676 0.86402727185291 0.87390690454405 1.0296006746963 1.2930329759483 1.6295124929233 1.281924681101 1.4971797734704 0.079044832768769 1.4849477123952 0.36887009436222 0.23755362792898 0.42384314706125 0.25893745448675 1.4687233359403 0.25087550645777 0.32944553198508 0.38282174194353 0.46170887810184 0.33809167363451 0.43392239734219 0.29902481161591 1.0970223854112 0.60159168728545 0.42375265557185 1.4972814642595 0.46155325170563 0.28408643696726 1.0153407421696 0.57603001210271 0.271967433045 0.54790517451268 0.72831481586386 1.137419484181 0.036100676148131 -0.43393921187274 0.16972627386728 -0.068474886621128 0.12372349792388 0.33766855273796 0.12839591811479 0.16404624515093 -0.077556615888781 0.067624384160586 0.39942796556144 0.24531433161132 0.17944250721335 0.37686586532849 0.44071808321648 0.45869542445552 0.307544703738 1.8393254837219 1.1374649648758 0.84683304082184 1.1721081880273 1.3491787268194 1.4722819502543 0.97796505168394 0.98415189259838 1.5756644025384 0.85381248725386 0.89339715233846 0.56271943910724 0.80862818004405 0.41329350714916 0.61161386012543 0.67331384752444 1.9111743171584 0.60940698210974 1.5909070291349 0.57510858015717 0.4515745061592 0.44054297630475 0.57526526149936 0.19166365820765 0.41803059382447 0.5704052353783 0.73751353494531 0.84124282765346 0.74676048741704 -0.27490457073318 0.13178125338813 -0.26101330333555 -0.025519549501516 1.2707631129308 0.89270050725409 0.66520401899241 0.77626775415269 0.56786564970616 1.0718542359 0.93000447998622 0.85024098424253 0.92856004561711 1.2164070237263 0.61797626187091 0.63930842430649 0.63438336210983 0.69281211293918 0.6060224728332 0.73245169255861 0.6113712691485 0.59016011416933 0.57532258445418 0.64519536274231 0.43101147889816 1.6745049345907 0.72570609452048 0.86150625591661 0.90420660455457 0.93751197486571 1.6141038477255 1.0327228657107 1.7823559356544 1.6528075345788 0.055710965659108 0.95886981239221 1.3015908141335 0.093183397816821 1.0218960266753 0.58713594003658 0.84523526641155 0.86008556391671 0.048220553255483 0.53729628073309 1.8487053083121 0.087020982426579 1.4069888103746 0.99307566281312 0.57694377525005 0.5396323927465 0.43766833724297 1.8341617746849 0.83553119018572 0.97286688520842 0.81894297677474 1.0196353935271 1.0437391667924 1.8799303313522 0.84750341254384 1.2549555643175 1.2064211466379 1.5173118547652 1.6030290660414 1.3535901053975 1.0090122110416 1.5500990640275 1.0790557519495 0.94694257615327 1.5472956697118 1.8613509036291 1.2226393099253 0.5444732535204 1.537483193168 0.63946265428752 0.26697221974429 0.032869822737591 0.28368948959801 0.087043417805011 0.16171768339417 0.20056068423239 0.37128195423079 0.22641628056777 0.61655760561879 0.024323386367633 0.22972962393072 0.95046478703232 0.10877269391986 0.063911876503435 0.20493926104477 0.17435340309337 0.11894911897144 0.09543071688381 0.16431185932726 0.16376152755267 0.02363352144136 0.17009903482533 0.11588743190894 0.38251312706514 0.19013425356228 0.46654605098236 0.15548844787571 0.38164648567982 0.2750729117553 0.15873648470491 0.17811950167361 0.59656496656535 0.23440936339363 0.16021091191807 1.6579002787304 0.57001197857291 0.20181083709738 0.14952882301241 0.24186897282485 0.10887872617745 0.26907237877502 0.1573963106964 0.2495080845062 0.18590737804993 0.34507695573586 0.23887281678522 0.076803924402905 0.097044065830469 0.11552826233866 0.22727073064249 0.49660166950641 0.23906722607653 0.33124489988001 0.04574266780492 0.25103208492307 0.60166034065308 0.10667450690458 0.16435468728901 0.013866394932103 1.0479188520954 0.24191365108412 0.35176315027222 0.057372556082601 0.68734409823104 0.66636834754238 0.35109009725396 0.21423033171772 0.067916315261377 0.54489915740951 0.75378706743306 0.66660222949047 0.65837145203002 0.71345606473353 0.71683363114907 0.070287915701934 1.1149318962679 0.65972620509007 0.73068572604758 0.7519897333347 0.71017265765848 0.60486617230892 0.63086920609035 0.51512739969676 0.46868259906831 0.5638359950723 0.54812143347313 0.42451467486795 0.51243395485963 0.1990560445979 0.46982269958801 0.24182815669479 0.15597519223951 0.40150989654838 0.22387615538244 0.49406535879817 0.57206152329603 0.30527381007358 0.26622832144002 0.2475346752347 0.35651594086066 0.091866118260437 0.12772645670314 1.1736825313097 1.5610979257504 1.1642841258669 1.0409977286647 1.0467249003388 0.91331379540048 1.8425394061686 0.90323475744907 0.83465534232908 0.64173510288361 0.91791837704156 0.88982244279324 1.7456665147093 0.72680395750418 0.01039553855445 0.2542289976737 0.19891270534103 -0.11470050248619 0.088859812830357 -0.3223096016035 -0.18489382761721 -0.056168143465626 0.20148167978047 0.028268268537811 -0.16584377609742 -0.23915822312388 -0.15718885817746 0.24803138337574 0.072034814670702 -0.21125025777123 -0.26138257619686 0.11137364928627 -0.08642498594909 -0.38349885806416 0.72801484232217 0.55712377812556 0.5994848329263 0.66545815702078 0.73153454103407 -0.27824146193901 0.85124956713272 0.75206363790023 0.51415842229134 0.70600465851581 0.73476008516809 0.35476341447661 0.20047305272643 0.64679442118421 0.72500962340235 0.18257936554045 0.031203628536873 0.6329731152252 0.76030378612452 -0.15505992938139 0.25068634228431 -0.20981510937359 0.23137683398929 0.65634676278193 1.5921107304677 0.81684346342111 0.88047955377631 -0.14157649827053 0.54205020573323 0.88916349373422 -0.13514362204966 1.6097479545711 0.97809186282511 0.89378457289731 0.93155678501345 1.230861755291 1.8494508642846 0.97068985533658 1.5825726798128 1.0223192045911 1.0371558666585 -0.13705959466362 1.551626358224 1.0748024753618 1.4619315090043 0.68713533299613 0.20193790906254 -0.33389955985808 0.16800575205344 -0.35989663235251 0.16168367515439 0.12439078234285 -0.22872687453042 0.64504587893372 0.89973198123402 0.75409534030974 0.55147593838976 0.13550025980557 0.87676780917389 0.93096026038594 -0.3001458340348 -0.15619725400125 -0.03219929734174 0.15084280729037 1.3043070404312 0.083023761529779 -0.20606789986723 0.31520173813239 -0.26964353172997 0.18700554795099 0.15210835404056 -0.03722533111299 0.029333428483473 -0.21262848694897 -0.47056916079916 0.27504453971942 -0.21253176037909 0.91623519374829 0.077038721532586 0.39317891888246 0.5485534298228 -0.25600987217245 -0.29739699121771 0.82774059542157 0.63521280001585 -0.28327528991157 -0.25222204871822 0.56739440629467 0.52812703594657 -0.32279664256093 -0.20130304213478 -0.12237007084147 0.066697275809332 0.055854472209103 -0.1574381069668 0.79346548686917 0.90580317648861 -0.2395493608955 -0.17827319700824 0.9834570927842 0.49458842275537 0.0211612614449 0.31900731430176 0.59832665896339 0.66347857141416 0.6424554540414 0.0086941911756592 0.84568859567116 0.65489571311684 0.67960219438097 0.56009462109573 0.33392512690224 0.97813730200263 1.0366531204155 0.62071551869075 1.6541420101862 0.85772997577987 0.67313384322529 0.71294917168342 0.74149650408012 0.89736991189341 0.79856783293304 0.122653388906 0.14404106432448 0.92940580060991 0.46403578275417 0.72336347243055 0.95718645526602 0.679825372705 1.694115659335 0.95170242407669 0.86015334360286 0.85319865211544 1.0452834955965 1.8287956730273 0.95150438353243 0.95495828401387 1.5278540876482 1.6635789099078 0.76576787886757 0.65128249580416 1.01021956986 0.81750718558009 0.75129360360359 0.88771153891808 1.1646697895157 1.7082793100453 1.0915835315271 1.4791384924999 1.399258071734 0.79392504534266 0.9734137257335 1.1504636365065 0.57812676766714 1.5001664677563 0.81296277853973 1.9552292814769 0.12239055927636 -0.12164804966319 0.16132113413465 -0.083906880518917 0.47140525878476 0.5139942969241 0.2168112564305 0.25726996636469 0.15529211476719 0.40367612719889 0.2420244780628 -0.45665150249653 -0.5038547676317 -0.093824418456479 0.31328217960579 0.054155700450509 0.32047669200645 0.41067329942594 0.047659926261882 -0.058612275690409 -0.026429561245562 -0.36384519098342 0.19487032950081 0.0951471579671 0.13063781819061 0.01953780070476 0.40853214960469 0.57560349350737 0.43188715080812 -0.33855344561728 0.55658203982459 0.52352383686226 -0.18569853956245 0.06033506295393 -0.218712734643 -0.17416543922035 -0.27651047115285 0.030383304629821 0.04919650045719 0.54158062121784 0.26962709270786 0.64514637951095 0.30230421311413 0.051724302457801 -0.18772699195573 0.96845639275473 0.3030313018744 0.56241301573813 0.28805791066644 0.64750426337038 -0.097210960453315 1.5216653831132 -0.37896967430351 -0.34946124412559 0.53155014732462 0.60391899401029 0.81370794314985 0.67138749210148 0.80098923978374 0.36614446982853 0.57609049657299 0.64438584321746 0.64137451982658 1.0941307203606 0.65129773447204 0.13804289340111 0.73996160034093 0.87969098247724 0.86359411075971 0.332600491595 0.6512189001021 1.0417160138596 1.0068877710314 -0.27631175373501 0.7628207878279 0.75783235605903 1.2988349638262 -0.41336788730656 0.92648846876929 1.1277385263318 0.84151109519511 0.79552034428143 1.0196709171544 0.77779938201002 0.71524815195287 0.61351919201151 0.28831084383316 -0.19229703319564 0.60463016308625 0.11264623463474 -0.28814335939383 -0.43102780157693 0.91044693430626 0.91304849632406 0.82714667773688 0.77492492324686 0.81199549660055 0.77921722172166 1.0144189585217 0.50643025915305 0.29106887532554 0.98016728729065 0.98567229752822 0.95541407548182 0.98979600050759 0.57534469760514 -0.34361883642304 -0.31794430132434 0.15915377977024 0.20160560550827 0.5474891668044 0.45944458039438 0.60162967745741 1.5403347544195 2.0065653217372 1.9955370388656 1.23442569013 1.0815422429546 1.1331018985812 0.84382645810276 1.0164089789612 1.6090784401073 1.1168397228265 1.0652862885482 1.036079273411 0.85945329077136 1.0093642102524 0.95683487862008 0.83941715980815 0.79080751393554 0.91129629458867 0.84164198921133 0.76946367953409 1.4888692184539 0.99497361414982 0.78407051315905 0.70321113447616 0.78920738798885 0.81294203353782 1.1531932944234 1.0382494652255 1.8770140213459 1.3076233856582 1.8244766714961 1.0105893018198 1.3534098302838 1.8520954519493 1.5334581319952 1.2664374124245 1.1508911007496 0.84936592469539 1.4348131663992 1.4085990364825 1.0499264890282 1.5448050989409 1.2500225682911 1.8027125359161 1.6114820265943 1.5655009502098 1.2785786684739 0.81788134406313 0.99794557620731 0.79840583363144 1.6839689279769 0.64778657526782 0.89122520081948 1.2332259030852 1.0237600378612 1.4601612155491 1.4471166439901 1.1512038884448 1.4559682677101 1.0276437319945 0.91428857076181 1.7827924094391 0.72887976599033 0.85792397719446 1.0977358118071 1.1614890267579 1.2281032978086 0.80821056024053 1.5779379262825 1.3855636006752 1.8002432572175 1.2487948215788 0.73505283544673 1.0439483001886 1.4173144943313 1.4785946215725 1.2131211643836 1.444851342184 1.7721285246757 0.97892983816028 0.84290852580618 0.83142403085433 0.63923892020428 1.8078428934525 0.79289043354762 0.76742946749274 0.84137937670549 0.95439879969869 0.7166742172412 1.4339038131708 0.63236818556978 0.80299616938583 1.101104559801 0.60152612060565 0.64718228234953 1.0771046893201 1.0047223143575 0.79497321872212 1.6220825160219 0.68324118951637 0.70654289065637 0.58693297956442 0.72091483462016 0.66752309708819 1.3642117166069 0.62014165353261 0.63383216383724 0.0069646714256313 0.37168614247644 0.9729715876123 0.7458254413294 1.4688247015388 0.63332637009953 0.76194646808911 0.35042636855202 0.44191648052147 0.48979583272458 0.11723190321745 0.64375323257031 0.68425137350517 0.53799339636341 0.63423320215408 -0.19104597365884 0.14835031534039 0.66193230317536 1.3115936921769 1.0263494188816 1.642219309032 0.65480894777351 0.75524368007899 0.67535484959689 1.2607527396355 1.0715696832661 1.0928483320744 0.99491917550337 0.71554308688076 0.63354397572101 0.95048039189794 1.476240136054 0.65945915723384 0.94138247528851 0.98660196500031 1.288143055396 0.64188612590059 0.66114246411932 0.92783047075007 0.68438455940441 0.64018571845285 -0.010836404876743 0.65739303176021 -0.21619361852931 0.37966238770021 -0.0069912594836118 -0.18170479547838 0.06420556097791 0.13909748771794 0.16617878209369 0.6297690773849 -0.28639229171776 -0.15169637122562 -0.13830635329224 0.50349089208652 0.064601788138701 0.30122443292842 0.025078012834523 0.43842607977456 0.5251616188257 -0.19353071347365 -0.18797125863991 0.030969482121902 0.5223864489738 -0.051385300641202 0.26877987946301 0.55355102500502 0.6916168311091 0.59268710694407 0.65711116630849 0.62116490505601 0.69842617448948 0.38764353088999 0.65088693544107 0.68191649136147 0.63536769465795 0.64631052711881 0.65769625093352 0.51911861403611 0.24787282396096 0.68197717796784 0.66374956337048 0.57062200530619 0.67380723342282 0.53923932048552 0.14422927880972 0.1092952495205 0.1739970756574 0.64732586164597 0.65698608049194 0.082765950250708 0.18609970970838 0.82253343225314 0.81131170854993 0.36100725058024 0.45572586480635 0.69512553045676 0.77338239763817 0.40429536071377 0.46278843955687 0.85218968777093 0.651921350569 0.86954823661046 0.65336227697115 0.78926936262509 0.73554926435019 0.62341173950844 0.70290838650395 0.63047268886612 0.68896265647863 0.67373882212673 0.65088796791431 0.649482804235 0.64935837692406 0.56552576751301 0.62668355572701 0.073546417292989 0.36419355503884 0.65212575884383 0.51172627633372 0.36875154575485 0.48031323798704 -0.16784781387479 0.62801645643569 -0.28229404821163 -0.26475148217374 -0.22929417240697 0.41979623639611 0.057200895055115 0.073277328150402 -0.25714248042722 -0.10858695400083 0.4324583330433 -0.15515759365405 0.32147875042298 -0.29037759991719 -0.29478439870623 0.12977885986468 0.075916001060545 0.36577314825465 0.27309989331526 0.15899536607818 -0.12026685006618 0.44283373949562 0.018563815921803 0.4624200557261 -0.17707916550201 0.66011790981182 0.1302701